# vtk DataFile Version 3.0
Kart explore — axes cap, volant, gaz ; temps = vit (voir .pvd)
ASCII
DATASET POLYDATA
POINTS 2574 float
-90.0 -45.0 -4.0
-90.0 -45.0 -3.0
-90.0 -45.0 -2.0
-90.0 -45.0 -1.0
-90.0 -45.0 0.0
-90.0 -45.0 10.0
-90.0 -45.0 20.0
-90.0 -45.0 30.0
-90.0 -45.0 40.0
-90.0 -45.0 50.0
-90.0 -45.0 60.0
-90.0 -45.0 70.0
-90.0 -45.0 80.0
-90.0 -35.0 -4.0
-90.0 -35.0 -3.0
-90.0 -35.0 -2.0
-90.0 -35.0 -1.0
-90.0 -35.0 0.0
-90.0 -35.0 10.0
-90.0 -35.0 20.0
-90.0 -35.0 30.0
-90.0 -35.0 40.0
-90.0 -35.0 50.0
-90.0 -35.0 60.0
-90.0 -35.0 70.0
-90.0 -35.0 80.0
-90.0 -25.0 -4.0
-90.0 -25.0 -3.0
-90.0 -25.0 -2.0
-90.0 -25.0 -1.0
-90.0 -25.0 0.0
-90.0 -25.0 10.0
-90.0 -25.0 20.0
-90.0 -25.0 30.0
-90.0 -25.0 40.0
-90.0 -25.0 50.0
-90.0 -25.0 60.0
-90.0 -25.0 70.0
-90.0 -25.0 80.0
-90.0 -15.0 -4.0
-90.0 -15.0 -3.0
-90.0 -15.0 -2.0
-90.0 -15.0 -1.0
-90.0 -15.0 0.0
-90.0 -15.0 10.0
-90.0 -15.0 20.0
-90.0 -15.0 30.0
-90.0 -15.0 40.0
-90.0 -15.0 50.0
-90.0 -15.0 60.0
-90.0 -15.0 70.0
-90.0 -15.0 80.0
-90.0 -5.0 -4.0
-90.0 -5.0 -3.0
-90.0 -5.0 -2.0
-90.0 -5.0 -1.0
-90.0 -5.0 0.0
-90.0 -5.0 10.0
-90.0 -5.0 20.0
-90.0 -5.0 30.0
-90.0 -5.0 40.0
-90.0 -5.0 50.0
-90.0 -5.0 60.0
-90.0 -5.0 70.0
-90.0 -5.0 80.0
-90.0 0.0 -4.0
-90.0 0.0 -3.0
-90.0 0.0 -2.0
-90.0 0.0 -1.0
-90.0 0.0 0.0
-90.0 0.0 10.0
-90.0 0.0 20.0
-90.0 0.0 30.0
-90.0 0.0 40.0
-90.0 0.0 50.0
-90.0 0.0 60.0
-90.0 0.0 70.0
-90.0 0.0 80.0
-90.0 5.0 -4.0
-90.0 5.0 -3.0
-90.0 5.0 -2.0
-90.0 5.0 -1.0
-90.0 5.0 0.0
-90.0 5.0 10.0
-90.0 5.0 20.0
-90.0 5.0 30.0
-90.0 5.0 40.0
-90.0 5.0 50.0
-90.0 5.0 60.0
-90.0 5.0 70.0
-90.0 5.0 80.0
-90.0 15.0 -4.0
-90.0 15.0 -3.0
-90.0 15.0 -2.0
-90.0 15.0 -1.0
-90.0 15.0 0.0
-90.0 15.0 10.0
-90.0 15.0 20.0
-90.0 15.0 30.0
-90.0 15.0 40.0
-90.0 15.0 50.0
-90.0 15.0 60.0
-90.0 15.0 70.0
-90.0 15.0 80.0
-90.0 25.0 -4.0
-90.0 25.0 -3.0
-90.0 25.0 -2.0
-90.0 25.0 -1.0
-90.0 25.0 0.0
-90.0 25.0 10.0
-90.0 25.0 20.0
-90.0 25.0 30.0
-90.0 25.0 40.0
-90.0 25.0 50.0
-90.0 25.0 60.0
-90.0 25.0 70.0
-90.0 25.0 80.0
-90.0 35.0 -4.0
-90.0 35.0 -3.0
-90.0 35.0 -2.0
-90.0 35.0 -1.0
-90.0 35.0 0.0
-90.0 35.0 10.0
-90.0 35.0 20.0
-90.0 35.0 30.0
-90.0 35.0 40.0
-90.0 35.0 50.0
-90.0 35.0 60.0
-90.0 35.0 70.0
-90.0 35.0 80.0
-90.0 45.0 -4.0
-90.0 45.0 -3.0
-90.0 45.0 -2.0
-90.0 45.0 -1.0
-90.0 45.0 0.0
-90.0 45.0 10.0
-90.0 45.0 20.0
-90.0 45.0 30.0
-90.0 45.0 40.0
-90.0 45.0 50.0
-90.0 45.0 60.0
-90.0 45.0 70.0
-90.0 45.0 80.0
-80.0 -45.0 -4.0
-80.0 -45.0 -3.0
-80.0 -45.0 -2.0
-80.0 -45.0 -1.0
-80.0 -45.0 0.0
-80.0 -45.0 10.0
-80.0 -45.0 20.0
-80.0 -45.0 30.0
-80.0 -45.0 40.0
-80.0 -45.0 50.0
-80.0 -45.0 60.0
-80.0 -45.0 70.0
-80.0 -45.0 80.0
-80.0 -35.0 -4.0
-80.0 -35.0 -3.0
-80.0 -35.0 -2.0
-80.0 -35.0 -1.0
-80.0 -35.0 0.0
-80.0 -35.0 10.0
-80.0 -35.0 20.0
-80.0 -35.0 30.0
-80.0 -35.0 40.0
-80.0 -35.0 50.0
-80.0 -35.0 60.0
-80.0 -35.0 70.0
-80.0 -35.0 80.0
-80.0 -25.0 -4.0
-80.0 -25.0 -3.0
-80.0 -25.0 -2.0
-80.0 -25.0 -1.0
-80.0 -25.0 0.0
-80.0 -25.0 10.0
-80.0 -25.0 20.0
-80.0 -25.0 30.0
-80.0 -25.0 40.0
-80.0 -25.0 50.0
-80.0 -25.0 60.0
-80.0 -25.0 70.0
-80.0 -25.0 80.0
-80.0 -15.0 -4.0
-80.0 -15.0 -3.0
-80.0 -15.0 -2.0
-80.0 -15.0 -1.0
-80.0 -15.0 0.0
-80.0 -15.0 10.0
-80.0 -15.0 20.0
-80.0 -15.0 30.0
-80.0 -15.0 40.0
-80.0 -15.0 50.0
-80.0 -15.0 60.0
-80.0 -15.0 70.0
-80.0 -15.0 80.0
-80.0 -5.0 -4.0
-80.0 -5.0 -3.0
-80.0 -5.0 -2.0
-80.0 -5.0 -1.0
-80.0 -5.0 0.0
-80.0 -5.0 10.0
-80.0 -5.0 20.0
-80.0 -5.0 30.0
-80.0 -5.0 40.0
-80.0 -5.0 50.0
-80.0 -5.0 60.0
-80.0 -5.0 70.0
-80.0 -5.0 80.0
-80.0 0.0 -4.0
-80.0 0.0 -3.0
-80.0 0.0 -2.0
-80.0 0.0 -1.0
-80.0 0.0 0.0
-80.0 0.0 10.0
-80.0 0.0 20.0
-80.0 0.0 30.0
-80.0 0.0 40.0
-80.0 0.0 50.0
-80.0 0.0 60.0
-80.0 0.0 70.0
-80.0 0.0 80.0
-80.0 5.0 -4.0
-80.0 5.0 -3.0
-80.0 5.0 -2.0
-80.0 5.0 -1.0
-80.0 5.0 0.0
-80.0 5.0 10.0
-80.0 5.0 20.0
-80.0 5.0 30.0
-80.0 5.0 40.0
-80.0 5.0 50.0
-80.0 5.0 60.0
-80.0 5.0 70.0
-80.0 5.0 80.0
-80.0 15.0 -4.0
-80.0 15.0 -3.0
-80.0 15.0 -2.0
-80.0 15.0 -1.0
-80.0 15.0 0.0
-80.0 15.0 10.0
-80.0 15.0 20.0
-80.0 15.0 30.0
-80.0 15.0 40.0
-80.0 15.0 50.0
-80.0 15.0 60.0
-80.0 15.0 70.0
-80.0 15.0 80.0
-80.0 25.0 -4.0
-80.0 25.0 -3.0
-80.0 25.0 -2.0
-80.0 25.0 -1.0
-80.0 25.0 0.0
-80.0 25.0 10.0
-80.0 25.0 20.0
-80.0 25.0 30.0
-80.0 25.0 40.0
-80.0 25.0 50.0
-80.0 25.0 60.0
-80.0 25.0 70.0
-80.0 25.0 80.0
-80.0 35.0 -4.0
-80.0 35.0 -3.0
-80.0 35.0 -2.0
-80.0 35.0 -1.0
-80.0 35.0 0.0
-80.0 35.0 10.0
-80.0 35.0 20.0
-80.0 35.0 30.0
-80.0 35.0 40.0
-80.0 35.0 50.0
-80.0 35.0 60.0
-80.0 35.0 70.0
-80.0 35.0 80.0
-80.0 45.0 -4.0
-80.0 45.0 -3.0
-80.0 45.0 -2.0
-80.0 45.0 -1.0
-80.0 45.0 0.0
-80.0 45.0 10.0
-80.0 45.0 20.0
-80.0 45.0 30.0
-80.0 45.0 40.0
-80.0 45.0 50.0
-80.0 45.0 60.0
-80.0 45.0 70.0
-80.0 45.0 80.0
-70.0 -45.0 -4.0
-70.0 -45.0 -3.0
-70.0 -45.0 -2.0
-70.0 -45.0 -1.0
-70.0 -45.0 0.0
-70.0 -45.0 10.0
-70.0 -45.0 20.0
-70.0 -45.0 30.0
-70.0 -45.0 40.0
-70.0 -45.0 50.0
-70.0 -45.0 60.0
-70.0 -45.0 70.0
-70.0 -45.0 80.0
-70.0 -35.0 -4.0
-70.0 -35.0 -3.0
-70.0 -35.0 -2.0
-70.0 -35.0 -1.0
-70.0 -35.0 0.0
-70.0 -35.0 10.0
-70.0 -35.0 20.0
-70.0 -35.0 30.0
-70.0 -35.0 40.0
-70.0 -35.0 50.0
-70.0 -35.0 60.0
-70.0 -35.0 70.0
-70.0 -35.0 80.0
-70.0 -25.0 -4.0
-70.0 -25.0 -3.0
-70.0 -25.0 -2.0
-70.0 -25.0 -1.0
-70.0 -25.0 0.0
-70.0 -25.0 10.0
-70.0 -25.0 20.0
-70.0 -25.0 30.0
-70.0 -25.0 40.0
-70.0 -25.0 50.0
-70.0 -25.0 60.0
-70.0 -25.0 70.0
-70.0 -25.0 80.0
-70.0 -15.0 -4.0
-70.0 -15.0 -3.0
-70.0 -15.0 -2.0
-70.0 -15.0 -1.0
-70.0 -15.0 0.0
-70.0 -15.0 10.0
-70.0 -15.0 20.0
-70.0 -15.0 30.0
-70.0 -15.0 40.0
-70.0 -15.0 50.0
-70.0 -15.0 60.0
-70.0 -15.0 70.0
-70.0 -15.0 80.0
-70.0 -5.0 -4.0
-70.0 -5.0 -3.0
-70.0 -5.0 -2.0
-70.0 -5.0 -1.0
-70.0 -5.0 0.0
-70.0 -5.0 10.0
-70.0 -5.0 20.0
-70.0 -5.0 30.0
-70.0 -5.0 40.0
-70.0 -5.0 50.0
-70.0 -5.0 60.0
-70.0 -5.0 70.0
-70.0 -5.0 80.0
-70.0 0.0 -4.0
-70.0 0.0 -3.0
-70.0 0.0 -2.0
-70.0 0.0 -1.0
-70.0 0.0 0.0
-70.0 0.0 10.0
-70.0 0.0 20.0
-70.0 0.0 30.0
-70.0 0.0 40.0
-70.0 0.0 50.0
-70.0 0.0 60.0
-70.0 0.0 70.0
-70.0 0.0 80.0
-70.0 5.0 -4.0
-70.0 5.0 -3.0
-70.0 5.0 -2.0
-70.0 5.0 -1.0
-70.0 5.0 0.0
-70.0 5.0 10.0
-70.0 5.0 20.0
-70.0 5.0 30.0
-70.0 5.0 40.0
-70.0 5.0 50.0
-70.0 5.0 60.0
-70.0 5.0 70.0
-70.0 5.0 80.0
-70.0 15.0 -4.0
-70.0 15.0 -3.0
-70.0 15.0 -2.0
-70.0 15.0 -1.0
-70.0 15.0 0.0
-70.0 15.0 10.0
-70.0 15.0 20.0
-70.0 15.0 30.0
-70.0 15.0 40.0
-70.0 15.0 50.0
-70.0 15.0 60.0
-70.0 15.0 70.0
-70.0 15.0 80.0
-70.0 25.0 -4.0
-70.0 25.0 -3.0
-70.0 25.0 -2.0
-70.0 25.0 -1.0
-70.0 25.0 0.0
-70.0 25.0 10.0
-70.0 25.0 20.0
-70.0 25.0 30.0
-70.0 25.0 40.0
-70.0 25.0 50.0
-70.0 25.0 60.0
-70.0 25.0 70.0
-70.0 25.0 80.0
-70.0 35.0 -4.0
-70.0 35.0 -3.0
-70.0 35.0 -2.0
-70.0 35.0 -1.0
-70.0 35.0 0.0
-70.0 35.0 10.0
-70.0 35.0 20.0
-70.0 35.0 30.0
-70.0 35.0 40.0
-70.0 35.0 50.0
-70.0 35.0 60.0
-70.0 35.0 70.0
-70.0 35.0 80.0
-70.0 45.0 -4.0
-70.0 45.0 -3.0
-70.0 45.0 -2.0
-70.0 45.0 -1.0
-70.0 45.0 0.0
-70.0 45.0 10.0
-70.0 45.0 20.0
-70.0 45.0 30.0
-70.0 45.0 40.0
-70.0 45.0 50.0
-70.0 45.0 60.0
-70.0 45.0 70.0
-70.0 45.0 80.0
-59.99999999999999 -45.0 -4.0
-59.99999999999999 -45.0 -3.0
-59.99999999999999 -45.0 -2.0
-59.99999999999999 -45.0 -1.0
-59.99999999999999 -45.0 0.0
-59.99999999999999 -45.0 10.0
-59.99999999999999 -45.0 20.0
-59.99999999999999 -45.0 30.0
-59.99999999999999 -45.0 40.0
-59.99999999999999 -45.0 50.0
-59.99999999999999 -45.0 60.0
-59.99999999999999 -45.0 70.0
-59.99999999999999 -45.0 80.0
-59.99999999999999 -35.0 -4.0
-59.99999999999999 -35.0 -3.0
-59.99999999999999 -35.0 -2.0
-59.99999999999999 -35.0 -1.0
-59.99999999999999 -35.0 0.0
-59.99999999999999 -35.0 10.0
-59.99999999999999 -35.0 20.0
-59.99999999999999 -35.0 30.0
-59.99999999999999 -35.0 40.0
-59.99999999999999 -35.0 50.0
-59.99999999999999 -35.0 60.0
-59.99999999999999 -35.0 70.0
-59.99999999999999 -35.0 80.0
-59.99999999999999 -25.0 -4.0
-59.99999999999999 -25.0 -3.0
-59.99999999999999 -25.0 -2.0
-59.99999999999999 -25.0 -1.0
-59.99999999999999 -25.0 0.0
-59.99999999999999 -25.0 10.0
-59.99999999999999 -25.0 20.0
-59.99999999999999 -25.0 30.0
-59.99999999999999 -25.0 40.0
-59.99999999999999 -25.0 50.0
-59.99999999999999 -25.0 60.0
-59.99999999999999 -25.0 70.0
-59.99999999999999 -25.0 80.0
-59.99999999999999 -15.0 -4.0
-59.99999999999999 -15.0 -3.0
-59.99999999999999 -15.0 -2.0
-59.99999999999999 -15.0 -1.0
-59.99999999999999 -15.0 0.0
-59.99999999999999 -15.0 10.0
-59.99999999999999 -15.0 20.0
-59.99999999999999 -15.0 30.0
-59.99999999999999 -15.0 40.0
-59.99999999999999 -15.0 50.0
-59.99999999999999 -15.0 60.0
-59.99999999999999 -15.0 70.0
-59.99999999999999 -15.0 80.0
-59.99999999999999 -5.0 -4.0
-59.99999999999999 -5.0 -3.0
-59.99999999999999 -5.0 -2.0
-59.99999999999999 -5.0 -1.0
-59.99999999999999 -5.0 0.0
-59.99999999999999 -5.0 10.0
-59.99999999999999 -5.0 20.0
-59.99999999999999 -5.0 30.0
-59.99999999999999 -5.0 40.0
-59.99999999999999 -5.0 50.0
-59.99999999999999 -5.0 60.0
-59.99999999999999 -5.0 70.0
-59.99999999999999 -5.0 80.0
-59.99999999999999 0.0 -4.0
-59.99999999999999 0.0 -3.0
-59.99999999999999 0.0 -2.0
-59.99999999999999 0.0 -1.0
-59.99999999999999 0.0 0.0
-59.99999999999999 0.0 10.0
-59.99999999999999 0.0 20.0
-59.99999999999999 0.0 30.0
-59.99999999999999 0.0 40.0
-59.99999999999999 0.0 50.0
-59.99999999999999 0.0 60.0
-59.99999999999999 0.0 70.0
-59.99999999999999 0.0 80.0
-59.99999999999999 5.0 -4.0
-59.99999999999999 5.0 -3.0
-59.99999999999999 5.0 -2.0
-59.99999999999999 5.0 -1.0
-59.99999999999999 5.0 0.0
-59.99999999999999 5.0 10.0
-59.99999999999999 5.0 20.0
-59.99999999999999 5.0 30.0
-59.99999999999999 5.0 40.0
-59.99999999999999 5.0 50.0
-59.99999999999999 5.0 60.0
-59.99999999999999 5.0 70.0
-59.99999999999999 5.0 80.0
-59.99999999999999 15.0 -4.0
-59.99999999999999 15.0 -3.0
-59.99999999999999 15.0 -2.0
-59.99999999999999 15.0 -1.0
-59.99999999999999 15.0 0.0
-59.99999999999999 15.0 10.0
-59.99999999999999 15.0 20.0
-59.99999999999999 15.0 30.0
-59.99999999999999 15.0 40.0
-59.99999999999999 15.0 50.0
[...]
POINT_DATA 2574
SCALARS vitesse float 1
LOOKUP_TABLE default
5.0
5.0
5.0
5.0
5.0
5.0
5.0
5.0
5.0
5.0
5.0
5.0
5.0
5.0
5.0
5.0
5.0
5.0
5.0
5.0
5.0
5.0
5.0
5.0
5.0
5.0
5.0
5.0
5.0
5.0
5.0
5.0
5.0
5.0
5.0
5.0
5.0
5.0
5.0
5.0
5.0
5.0
5.0
5.0
5.0
5.0
5.0
5.0
5.0
5.0
5.0
5.0
5.0
5.0
5.0
5.0
5.0
5.0
5.0
5.0
5.0
5.0
5.0
5.0
5.0
5.0
5.0
5.0
5.0
5.0
5.0
5.0
5.0
5.0
5.0
5.0
5.0
5.0
5.0
5.0
5.0
5.0
5.0
5.0
5.0
5.0
5.0
5.0
5.0
5.0
5.0
5.0
5.0
5.0
5.0
5.0
5.0
5.0
5.0
5.0
5.0
5.0
5.0
5.0
5.0
5.0
5.0
5.0
5.0
5.0
5.0
5.0
5.0
5.0
5.0
5.0
5.0
5.0
5.0
5.0
5.0
5.0
5.0
5.0
5.0
5.0
5.0
5.0
5.0
5.0
5.0
5.0
5.0
5.0
5.0
5.0
5.0
5.0
5.0
5.0
5.0
5.0
5.0
5.0
5.0
5.0
5.0
5.0
5.0
5.0
5.0
5.0
5.0
5.0
5.0
5.0
5.0
5.0
5.0
5.0
5.0
5.0
5.0
5.0
5.0
5.0
5.0
5.0
5.0
5.0
5.0
5.0
5.0
5.0
5.0
5.0
5.0
5.0
5.0
5.0
5.0
5.0
5.0
5.0
5.0
5.0
5.0
5.0
5.0
5.0
5.0
5.0
5.0
5.0
5.0
5.0
5.0
5.0
5.0
5.0
5.0
5.0
5.0
5.0
5.0
5.0
5.0
5.0
5.0
5.0
5.0
5.0
5.0
5.0
5.0
5.0
5.0
5.0
5.0
5.0
5.0
5.0
5.0
5.0
5.0
5.0
5.0
5.0
5.0
5.0
5.0
5.0
5.0
5.0
5.0
5.0
5.0
5.0
5.0
5.0
5.0
5.0
5.0
5.0
5.0
5.0
5.0
5.0
5.0
5.0
5.0
5.0
5.0
5.0
5.0
5.0
5.0
5.0
5.0
5.0
5.0
5.0
5.0
5.0
5.0
5.0
5.0
5.0
5.0
5.0
5.0
5.0
5.0
5.0
5.0
5.0
5.0
5.0
5.0
5.0
5.0
5.0
5.0
5.0
5.0
5.0
5.0
5.0
5.0
5.0
5.0
5.0
5.0
5.0
5.0
5.0
5.0
5.0
5.0
5.0
5.0
5.0
5.0
5.0
5.0
5.0
5.0
5.0
5.0
5.0
5.0
5.0
5.0
5.0
5.0
5.0
5.0
5.0
5.0
5.0
5.0
5.0
5.0
5.0
5.0
5.0
5.0
5.0
5.0
5.0
5.0
5.0
5.0
5.0
5.0
5.0
5.0
5.0
5.0
5.0
5.0
5.0
5.0
5.0
5.0
5.0
5.0
5.0
5.0
5.0
5.0
5.0
5.0
5.0
5.0
5.0
5.0
5.0
5.0
5.0
5.0
5.0
5.0
5.0
5.0
5.0
5.0
5.0
5.0
5.0
5.0
5.0
5.0
5.0
5.0
5.0
5.0
5.0
5.0
5.0
5.0
5.0
5.0
5.0
5.0
5.0
5.0
5.0
5.0
5.0
5.0
5.0
5.0
5.0
5.0
5.0
5.0
5.0
5.0
5.0
5.0
5.0
5.0
5.0
5.0
5.0
5.0
5.0
5.0
5.0
5.0
5.0
5.0
5.0
5.0
5.0
5.0
5.0
5.0
5.0
5.0
5.0
5.0
5.0
5.0
5.0
5.0
5.0
5.0
5.0
5.0
5.0
5.0
5.0
5.0
5.0
5.0
5.0
5.0
5.0
5.0
5.0
5.0
5.0
5.0
5.0
5.0
5.0
5.0
5.0
5.0
5.0
5.0
5.0
5.0
5.0
5.0
5.0
5.0
5.0
5.0
5.0
5.0
5.0
5.0
5.0
5.0
5.0
5.0
5.0
5.0
5.0
5.0
5.0
5.0
5.0
5.0
5.0
5.0
5.0
5.0
5.0
5.0
5.0
5.0
5.0
5.0
5.0
5.0
5.0
5.0
5.0
5.0
5.0
5.0
5.0
5.0
5.0
5.0
5.0
5.0
5.0
5.0
5.0
5.0
5.0
5.0
5.0
5.0
5.0
5.0
5.0
5.0
5.0
5.0
5.0
5.0
5.0
5.0
5.0
5.0
5.0
5.0
5.0
5.0
5.0
5.0
5.0
5.0
5.0
5.0
5.0
5.0
5.0
5.0
5.0
5.0
5.0
5.0
5.0
5.0
5.0
5.0
5.0
5.0
5.0
5.0
5.0
5.0
5.0
5.0
5.0
5.0
5.0
5.0
5.0
5.0
5.0
5.0
5.0
5.0
5.0
5.0
5.0
5.0
5.0
5.0
5.0
5.0
5.0
5.0
5.0
5.0
5.0
5.0
5.0
5.0
5.0
5.0
5.0
5.0
5.0
5.0
5.0
5.0
5.0
5.0
5.0
5.0
5.0
5.0
5.0
5.0
5.0
5.0
5.0
5.0
5.0
5.0
5.0
5.0
5.0
5.0
5.0
5.0
5.0
5.0
5.0
5.0
5.0
5.0
5.0
5.0
5.0
5.0
5.0
5.0
5.0
5.0
5.0
5.0
5.0
5.0
5.0
5.0
5.0
5.0
5.0
5.0
5.0
5.0
5.0
5.0
5.0
5.0
5.0
5.0
5.0
5.0
5.0
5.0
5.0
5.0
5.0
5.0
5.0
5.0
5.0
5.0
5.0
5.0
5.0
5.0
5.0
5.0
5.0
5.0
5.0
5.0
5.0
5.0
5.0
5.0
5.0
5.0
5.0
5.0
5.0
5.0
5.0
5.0
5.0
5.0
5.0
5.0
5.0
5.0
5.0
5.0
5.0
5.0
5.0
5.0
5.0
5.0
5.0
5.0
5.0
5.0
5.0
5.0
5.0
5.0
5.0
5.0
5.0
5.0
5.0
5.0
5.0
5.0
5.0
5.0
5.0
5.0
5.0
5.0
5.0
5.0
5.0
5.0
5.0
5.0
5.0
5.0
5.0
5.0
5.0
5.0
5.0
5.0
5.0
5.0
5.0
5.0
5.0
5.0
5.0
5.0
5.0
5.0
5.0
5.0
5.0
5.0
5.0
5.0
5.0
5.0
5.0
5.0
5.0
5.0
5.0
5.0
5.0
5.0
5.0
5.0
5.0
5.0
5.0
5.0
5.0
5.0
5.0
5.0
5.0
5.0
5.0
5.0
5.0
5.0
5.0
5.0
5.0
5.0
5.0
5.0
5.0
5.0
5.0
5.0
5.0
5.0
5.0
5.0
5.0
5.0
5.0
5.0
5.0
5.0
5.0
5.0
5.0
5.0
5.0
5.0
5.0
5.0
5.0
5.0
5.0
5.0
5.0
5.0
5.0
5.0
5.0
5.0
5.0
5.0
5.0
5.0
5.0
5.0
5.0
5.0
5.0
5.0
5.0
5.0
5.0
5.0
5.0
5.0
5.0
5.0
5.0
5.0
5.0
5.0
5.0
5.0
5.0
5.0
5.0
5.0
5.0
5.0
5.0
5.0
5.0
5.0
5.0
5.0
5.0
5.0
5.0
5.0
5.0
5.0
5.0
5.0
5.0
5.0
5.0
5.0
5.0
5.0
5.0
5.0
5.0
5.0
5.0
5.0
5.0
5.0
5.0
5.0
5.0
5.0
5.0
5.0
5.0
5.0
5.0
5.0
5.0
5.0
5.0
5.0
5.0
5.0
5.0
5.0
5.0
5.0
5.0
5.0
5.0
5.0
5.0
5.0
5.0
5.0
5.0
5.0
5.0
5.0
5.0
5.0
5.0
5.0
5.0
5.0
5.0
5.0
5.0
5.0
5.0
5.0
5.0
5.0
5.0
5.0
5.0
5.0
5.0
5.0
5.0
5.0
5.0
5.0
5.0
5.0
5.0
5.0
5.0
5.0
5.0
5.0
5.0
5.0
5.0
5.0
5.0
5.0
5.0
5.0
5.0
5.0
5.0
5.0
5.0
5.0
5.0
5.0
5.0
5.0
5.0
5.0
5.0
5.0
5.0
5.0
5.0
5.0
5.0
5.0
5.0
5.0
5.0
5.0
5.0
5.0
5.0
5.0
5.0
5.0
5.0
5.0
5.0
5.0
5.0
5.0
5.0
5.0
5.0
5.0
5.0
5.0
5.0
5.0
5.0
5.0
5.0
5.0
5.0
5.0
5.0
5.0
5.0
5.0
5.0
5.0
5.0
5.0
5.0
5.0
5.0
5.0
5.0
5.0
5.0
5.0
5.0
5.0
5.0
5.0
5.0
5.0
5.0
5.0
5.0
5.0
5.0
5.0
5.0
5.0
5.0
5.0
5.0
5.0
5.0
5.0
5.0
5.0
5.0
5.0
5.0
5.0
5.0
5.0
5.0
5.0
5.0
5.0
5.0
5.0
5.0
5.0
5.0
5.0
5.0
5.0
5.0
5.0
5.0
5.0
5.0
5.0
5.0
5.0
5.0
5.0
5.0
5.0
5.0
5.0
5.0
5.0
5.0
5.0
5.0
5.0
5.0
5.0
5.0
5.0
5.0
5.0
5.0
5.0
5.0
5.0
5.0
5.0
5.0
5.0
5.0
5.0
5.0
5.0
5.0
5.0
5.0
5.0
5.0
5.0
5.0
5.0
5.0
5.0
5.0
5.0
5.0
5.0
5.0
5.0
5.0
5.0
5.0
5.0
5.0
5.0
5.0
5.0
5.0
5.0
5.0
5.0
5.0
5.0
5.0
5.0
5.0
5.0
5.0
5.0
5.0
5.0
5.0
5.0
5.0
5.0
5.0
5.0
5.0
5.0
5.0
5.0
5.0
5.0
5.0
5.0
5.0
5.0
5.0
5.0
5.0
5.0
5.0
5.0
5.0
5.0
5.0
5.0
5.0
5.0
5.0
5.0
5.0
5.0
5.0
5.0
5.0
5.0
5.0
5.0
5.0
5.0
5.0
5.0
5.0
5.0
5.0
5.0
5.0
5.0
5.0
5.0
5.0
5.0
5.0
5.0
5.0
5.0
5.0
5.0
5.0
5.0
5.0
5.0
5.0
5.0
5.0
5.0
5.0
5.0
5.0
5.0
5.0
5.0
5.0
5.0
5.0
5.0
5.0
5.0
5.0
5.0
5.0
5.0
5.0
5.0
5.0
5.0
5.0
5.0
5.0
5.0
5.0
5.0
5.0
5.0
5.0
5.0
5.0
5.0
5.0
5.0
5.0
5.0
5.0
5.0
5.0
5.0
5.0
5.0
5.0
5.0
5.0
5.0
5.0
5.0
5.0
5.0
5.0
5.0
5.0
5.0
5.0
5.0
5.0
5.0
5.0
5.0
5.0
5.0
5.0
5.0
5.0
5.0
5.0
5.0
5.0
5.0
5.0
5.0
5.0
5.0
5.0
5.0
5.0
5.0
5.0
5.0
5.0
5.0
5.0
5.0
5.0
5.0
5.0
5.0
5.0
5.0
5.0
5.0
5.0
5.0
5.0
5.0
5.0
5.0
5.0
5.0
5.0
5.0
5.0
5.0
5.0
5.0
5.0
5.0
5.0
5.0
5.0
5.0
5.0
5.0
5.0
5.0
5.0
5.0
5.0
5.0
5.0
5.0
5.0
5.0
5.0
5.0
5.0
5.0
5.0
5.0
5.0
5.0
5.0
5.0
5.0
5.0
5.0
5.0
5.0
5.0
5.0
5.0
5.0
5.0
5.0
5.0
5.0
5.0
5.0
5.0
5.0
5.0
5.0
5.0
5.0
5.0
5.0
5.0
5.0
5.0
5.0
5.0
5.0
5.0
5.0
5.0
5.0
5.0
5.0
5.0
5.0
5.0
5.0
5.0
5.0
5.0
5.0
5.0
5.0
5.0
5.0
5.0
5.0
5.0
5.0
5.0
5.0
5.0
5.0
5.0
5.0
5.0
5.0
5.0
5.0
5.0
5.0
5.0
5.0
5.0
5.0
5.0
5.0
5.0
5.0
5.0
5.0
5.0
5.0
5.0
5.0
5.0
5.0
5.0
5.0
5.0
5.0
5.0
5.0
5.0
5.0
5.0
5.0
5.0
5.0
5.0
5.0
5.0
5.0
5.0
5.0
5.0
5.0
5.0
5.0
5.0
5.0
5.0
5.0
5.0
5.0
5.0
5.0
5.0
5.0
5.0
5.0
5.0
5.0
5.0
5.0
5.0
5.0
5.0
5.0
5.0
5.0
5.0
5.0
5.0
5.0
5.0
5.0
5.0
5.0
5.0
5.0
5.0
5.0
5.0
5.0
5.0
5.0
5.0
5.0
5.0
5.0
5.0
5.0
5.0
5.0
5.0
5.0
5.0
5.0
5.0
5.0
5.0
5.0
5.0
5.0
5.0
5.0
5.0
5.0
5.0
5.0
5.0
5.0
5.0
5.0
5.0
5.0
5.0
5.0
5.0
5.0
5.0
5.0
5.0
5.0
5.0
5.0
5.0
5.0
5.0
5.0
5.0
5.0
5.0
5.0
5.0
5.0
5.0
5.0
5.0
5.0
5.0
5.0
5.0
5.0
5.0
5.0
5.0
5.0
5.0
5.0
5.0
5.0
5.0
5.0
5.0
5.0
5.0
5.0
5.0
5.0
5.0
5.0
5.0
5.0
5.0
5.0
5.0
5.0
5.0
5.0
5.0
5.0
5.0
5.0
5.0
5.0
5.0
5.0
5.0
5.0
5.0
5.0
5.0
5.0
5.0
5.0
5.0
5.0
5.0
5.0
5.0
5.0
5.0
5.0
5.0
5.0
5.0
5.0
5.0
5.0
5.0
5.0
5.0
5.0
5.0
5.0
5.0
5.0
5.0
5.0
5.0
5.0
5.0
5.0
5.0
5.0
5.0
5.0
5.0
5.0
5.0
5.0
5.0
5.0
5.0
5.0
5.0
5.0
5.0
5.0
5.0
5.0
5.0
5.0
5.0
5.0
5.0
5.0
5.0
5.0
5.0
5.0
5.0
5.0
5.0
5.0
5.0
5.0
5.0
5.0
5.0
5.0
5.0
5.0
5.0
5.0
5.0
5.0
5.0
5.0
5.0
5.0
5.0
5.0
5.0
5.0
5.0
5.0
5.0
5.0
5.0
5.0
5.0
5.0
5.0
5.0
5.0
5.0
5.0
5.0
5.0
5.0
5.0
5.0
5.0
5.0
5.0
5.0
5.0
5.0
5.0
5.0
5.0
5.0
5.0
5.0
5.0
5.0
5.0
5.0
5.0
5.0
5.0
5.0
5.0
5.0
5.0
5.0
5.0
5.0
5.0
5.0
5.0
5.0
5.0
5.0
5.0
5.0
5.0
5.0
5.0
5.0
5.0
5.0
5.0
5.0
5.0
5.0
5.0
5.0
5.0
5.0
5.0
5.0
5.0
5.0
5.0
5.0
5.0
5.0
5.0
5.0
5.0
5.0
5.0
5.0
5.0
5.0
5.0
5.0
5.0
5.0
5.0
5.0
5.0
5.0
5.0
5.0
5.0
5.0
5.0
5.0
5.0
5.0
5.0
5.0
5.0
5.0
5.0
5.0
5.0
5.0
5.0
5.0
5.0
5.0
5.0
5.0
5.0
5.0
5.0
5.0
5.0
5.0
5.0
5.0
5.0
5.0
5.0
5.0
5.0
5.0
5.0
5.0
5.0
5.0
5.0
5.0
5.0
5.0
5.0
5.0
5.0
5.0
5.0
5.0
5.0
5.0
5.0
5.0
5.0
5.0
5.0
5.0
5.0
5.0
5.0
5.0
5.0
5.0
5.0
5.0
5.0
5.0
5.0
5.0
5.0
5.0
5.0
5.0
5.0
5.0
5.0
5.0
5.0
5.0
5.0
5.0
5.0
5.0
5.0
5.0
5.0
5.0
5.0
5.0
5.0
5.0
5.0
5.0
5.0
5.0
5.0
5.0
5.0
5.0
5.0
5.0
5.0
5.0
5.0
5.0
5.0
5.0
5.0
5.0
5.0
5.0
5.0
5.0
5.0
5.0
5.0
5.0
5.0
5.0
5.0
5.0
5.0
5.0
5.0
5.0
5.0
5.0
5.0
5.0
5.0
5.0
5.0
5.0
5.0
5.0
5.0
5.0
5.0
5.0
5.0
5.0
5.0
5.0
5.0
5.0
5.0
5.0
5.0
5.0
5.0
5.0
5.0
5.0
5.0
5.0
5.0
5.0
5.0
5.0
5.0
5.0
5.0
5.0
5.0
5.0
5.0
5.0
5.0
5.0
5.0
5.0
5.0
5.0
5.0
5.0
5.0
5.0
5.0
5.0
5.0
5.0
5.0
5.0
5.0
5.0
5.0
5.0
5.0
5.0
5.0
5.0
5.0
5.0
5.0
5.0
5.0
5.0
5.0
5.0
5.0
5.0
5.0
5.0
5.0
5.0
5.0
5.0
5.0
5.0
5.0
5.0
5.0
5.0
5.0
5.0
5.0
5.0
5.0
5.0
5.0
5.0
5.0
5.0
5.0
5.0
5.0
5.0
5.0
5.0
5.0
5.0
5.0
5.0
5.0
5.0
5.0
5.0
5.0
5.0
5.0
5.0
5.0
5.0
5.0
5.0
5.0
5.0
5.0
5.0
5.0
5.0
5.0
5.0
5.0
5.0
5.0
5.0
5.0
5.0
5.0
5.0
5.0
5.0
5.0
5.0
5.0
5.0
5.0
5.0
5.0
5.0
5.0
5.0
5.0
5.0
5.0
5.0
5.0
5.0
5.0
5.0
5.0
5.0
5.0
5.0
5.0
5.0
5.0
5.0
5.0
5.0
5.0
5.0
5.0
5.0
5.0
5.0
5.0
5.0
5.0
5.0
5.0
5.0
5.0
5.0
5.0
5.0
5.0
5.0
5.0
5.0
5.0
5.0
5.0
5.0
5.0
5.0
5.0
5.0
5.0
5.0
5.0
5.0
5.0
5.0
5.0
5.0
5.0
5.0
5.0
5.0
5.0
5.0
5.0
5.0
5.0
5.0
5.0
5.0
5.0
5.0
5.0
5.0
5.0
5.0
5.0
5.0
5.0
5.0
5.0
5.0
5.0
5.0
5.0
5.0
5.0
5.0
5.0
5.0
5.0
5.0
5.0
5.0
5.0
5.0
5.0
5.0
5.0
5.0
5.0
5.0
5.0
5.0
5.0
5.0
5.0
5.0
5.0
5.0
5.0
5.0
5.0
5.0
5.0
5.0
5.0
5.0
5.0
5.0
5.0
5.0
5.0
5.0
5.0
5.0
5.0
5.0
5.0
5.0
5.0
5.0
5.0
5.0
5.0
5.0
5.0
5.0
5.0
5.0
5.0
5.0
5.0
5.0
5.0
5.0
5.0
5.0
5.0
5.0
5.0
5.0
5.0
5.0
5.0
5.0
5.0
5.0
5.0
5.0
5.0
5.0
5.0
5.0
5.0
5.0
5.0
5.0
5.0
5.0
5.0
5.0
5.0
5.0
5.0
5.0
5.0
5.0
5.0
5.0
5.0
5.0
5.0
5.0
5.0
5.0
5.0
5.0
5.0
5.0
5.0
5.0
5.0
5.0
5.0
5.0
5.0
5.0
5.0
5.0
5.0
5.0
5.0
5.0
5.0
5.0
5.0
5.0
5.0
5.0
5.0
5.0
5.0
5.0
5.0
5.0
5.0
5.0
5.0
5.0
5.0
5.0
5.0
5.0
5.0
5.0
5.0
5.0
5.0
5.0
5.0
5.0
5.0
5.0
5.0
5.0
5.0
5.0
5.0
5.0
5.0
5.0
5.0
5.0
5.0
5.0
5.0
5.0
5.0
5.0
5.0
5.0
5.0
5.0
5.0
5.0
5.0
5.0
5.0
5.0
5.0
5.0
5.0
5.0
5.0
5.0
5.0
5.0
5.0
5.0
5.0
5.0
5.0
5.0
5.0
5.0
5.0
5.0
5.0
5.0
5.0
5.0
5.0
5.0
5.0
5.0
5.0
5.0
5.0
5.0
5.0
5.0
5.0
5.0
5.0
5.0
5.0
5.0
5.0
5.0
5.0
5.0
5.0
5.0
5.0
5.0
5.0
5.0
5.0
5.0
5.0
5.0
5.0
5.0
5.0
5.0
5.0
5.0
5.0
5.0
5.0
5.0
5.0
5.0
5.0
5.0
5.0
5.0
5.0
5.0
5.0
5.0
5.0
5.0
5.0
5.0
5.0
5.0
5.0
5.0
5.0
5.0
5.0
5.0
5.0
5.0
5.0
5.0
5.0
5.0
5.0
5.0
5.0
5.0
5.0
5.0
5.0
5.0
5.0
5.0
5.0
5.0
5.0
5.0
5.0
5.0
5.0
5.0
5.0
5.0
5.0
5.0
5.0
5.0
5.0
5.0
5.0
5.0
5.0
5.0
5.0
5.0
5.0
5.0
5.0
5.0
5.0
5.0
5.0
5.0
5.0
5.0
5.0
5.0
5.0
5.0
5.0
5.0
5.0
5.0
5.0
5.0
5.0
5.0
5.0
5.0
5.0
5.0
5.0
5.0
5.0
5.0
5.0
5.0
5.0
5.0
5.0
5.0
5.0
5.0
5.0
5.0
5.0
5.0
5.0
5.0
5.0
5.0
5.0
5.0
5.0
5.0
5.0
5.0
5.0
5.0
5.0
5.0
5.0
5.0
5.0
5.0
5.0
5.0
5.0
5.0
5.0
5.0
5.0
5.0
5.0
5.0
5.0
5.0
5.0
5.0
5.0
5.0
5.0
5.0
5.0
5.0
5.0
5.0
5.0
5.0
5.0
5.0
5.0
5.0
5.0
5.0
5.0
5.0
5.0
5.0
5.0
5.0
5.0
5.0
5.0
5.0
5.0
5.0
5.0
5.0
5.0
5.0
5.0
5.0
5.0
5.0
5.0
5.0
5.0
5.0
5.0
5.0
5.0
5.0
5.0
5.0
5.0
5.0
5.0
5.0
5.0
5.0
5.0
5.0
5.0
5.0
5.0
5.0
5.0
5.0
5.0
5.0
5.0
5.0
5.0
5.0
5.0
5.0
5.0
5.0
5.0
5.0
5.0
5.0
5.0
5.0
5.0
5.0
5.0
5.0
5.0
5.0
5.0
5.0
5.0
5.0
5.0
5.0
5.0
5.0
5.0
5.0
5.0
5.0
5.0
5.0
5.0
5.0
5.0
5.0
5.0
5.0
5.0
5.0
5.0
5.0
5.0
5.0
5.0
5.0
5.0
5.0
5.0
5.0
5.0
5.0
5.0
5.0
5.0
5.0
5.0
5.0
5.0
5.0
5.0
5.0
SCALARS Fcdg_x float 1
LOOKUP_TABLE default
-3.327163554275037e-13
1127.482517629952
1209.7736040665905
1236.0296600223787
1261.6134933804542
2982.684315979014
3403.084811922041
3601.708269062361
3707.4301612505196
3910.297434787103
3910.297450386669
3910.2974659786532
3910.2974815630587
-2.190295177058877e-13
922.3398935456551
986.2672427847083
1007.1717499618323
1027.8478954355312
2748.9187180340914
3169.3192139771177
3367.942671117438
3473.664563305596
3676.5318368421804
3676.531852441746
3676.5318680337305
3676.5318836181355
-2.190295177058877e-13
678.772615213839
724.7467773925083
739.9512487281171
755.0882171996809
2476.159039798241
2896.5595357412676
3095.182992881588
3200.904885069746
3403.77215860633
3403.7721742058957
3403.77218979788
3403.7722053822854
-3.327163554275037e-13
413.4081985816081
441.105907237011
450.31562737372735
459.5125502314039
2180.583372829964
2600.9838687729907
2799.607325913311
2905.3292181014685
3108.196491638053
3108.196507237619
3108.196522829603
3108.1965384140085
-2.758729365666957e-13
138.59800269481696
147.842638425185
150.92338889319745
154.0036946213746
1875.0745172199345
2295.475013162961
2494.0984703032814
2599.8203624914395
2802.687636028024
2802.6876516275893
2802.687667219574
2802.687682803979
-2.7031016474179954e-13
-2.703101647417996e-14
-1.0812406589672002e-14
-5.406203294836001e-15
0.0
1721.07082259856
2141.4713185415867
2340.094775681907
2445.816667870065
2648.6839414066494
2648.6839570062148
2648.6839725981995
2648.6839881826045
-2.474512271362917e-13
-138.59800269481696
-147.842638425185
-150.92338889319745
-154.0036946213746
1567.0671279771855
1987.4676239202122
2186.0910810605324
2291.8129732486905
2494.680246785275
2494.6802623848403
2494.680277976825
2494.68029356123
-1.337643894146757e-13
-413.4081985816081
-441.105907237011
-450.31562737372735
-459.5125502314039
1261.558272367156
1681.9587683101827
1880.5822254505028
1986.304117638661
2189.1713911752454
2189.1714067748107
2189.1714223667955
2189.1714379512005
-2.758729365666957e-13
-678.772615213839
-724.7467773925083
-739.9512487281171
-755.0882171996809
965.9826053988791
1386.3831013419058
1585.006558482226
1690.728450670384
1893.5957242069685
1893.5957398065339
1893.5957553985186
1893.5957709829236
-3.327163554275037e-13
-922.3398935456551
-986.2672427847083
-1007.1717499618323
-1027.8478954355312
693.2229271630288
1113.6234231060555
1312.2468802463757
1417.9687724345338
1620.8360459711182
1620.8360615706836
1620.8360771626683
1620.8360927470733
-1.621860988450797e-13
-1127.482517629952
-1209.7736040665905
-1236.0296600223787
-1261.6134933804542
459.45732921810577
879.8578251611325
1078.4812823014527
1184.2031744896108
1387.0704480261952
1387.0704636257606
1387.0704792177453
1387.0704948021503
-766.5698803106644
1013.3318606240498
1165.8888144378207
1214.4683181387627
1261.6134933804542
2861.0389316976043
3337.8925752099594
3566.922289546509
3688.4105529758226
3910.2974310364316
3910.297446878437
3910.297462712625
3910.297478538997
-766.5698803106643
828.4112698658594
949.2428096607018
988.7715735116485
1027.8478954355312
2627.2733337526806
3104.1269772650367
3333.1566916015863
3454.6449550309
3676.5318330915084
3676.531848933513
3676.5318647677013
3676.531880594074
-766.5698803106644
593.4857502386153
690.8206938814926
723.0267890480764
755.0882171996809
2354.5136555168306
2831.367299029186
3060.3970133657363
3181.8852767950493
3403.7721548556583
3403.7721706976636
3403.7721865318517
3403.7722023582237
-766.5698803106644
332.5777854705757
408.8285591579256
434.1886309966728
459.5125502314039
2058.937988548553
2535.7916320609093
2764.821346397459
2886.3096098267724
3108.1964878873814
3108.1965037293858
3108.196519563574
3108.196535389947
-766.5698803106643
60.12341020030935
116.45672586335968
135.23184293114332
154.0036946213746
1753.4291329385242
2230.2827764508797
2459.31249078743
2580.800754216743
2802.687632277352
2802.6876481193567
2802.687663953545
2802.6876797799177
-766.5698803106643
-77.82744782868194
-31.1350438423288
-15.567812322645242
0.0
1599.4254383171497
2076.2790818295052
2305.3087961660553
2426.7970595953684
2648.6839376559774
2648.683953497982
2648.6839693321704
2648.6839851585432
-766.5698803106644
-216.07316674242702
-178.835531730804
-166.4200368268165
-154.0036946213746
1445.4217436957751
1922.2753872081307
2151.305101544681
2272.793364973994
2494.680243034603
2494.6802588766077
2494.680274710796
2494.6802905371687
-766.5698803106644
-491.02908454863257
-472.12612069699804
-465.8202849750944
-459.5125502314039
1139.9128880857456
1616.7665315981012
1845.7962459346513
1967.2845093639644
2189.1713874245734
2189.171403266578
2189.1714191007663
2189.171434927139
-766.5698803106643
-757.833349238723
-756.2575761467356
-755.6851555316998
-755.0882171996809
844.3372211174687
1321.1908646298243
1550.2205789663744
1671.7088423956875
1893.5957204562965
1893.5957362983013
1893.5957521324895
1893.5957679588623
-766.5698803106644
-1004.7715078587127
-1018.9223975924081
-1023.4389605119384
-1027.8478954355312
571.5775428816185
1048.431186393974
1277.4609007305241
1398.9491641598372
1620.8360422204462
1620.836058062451
1620.8360738966392
1620.836089723012
-766.5698803106644
-1217.1060597165733
-1244.7457552467308
-1253.3462988397528
-1261.6134933804542
337.81194493669545
814.665588449051
1043.6953027856011
1165.1835662149142
1387.0704442755232
1387.070460117528
1387.0704759517162
1387.070491778089
-1509.8479227111652
827.1101282357757
1095.2925097998993
1180.3335177226536
1261.6134933804542
2756.154182835696
3284.9034715398366
3542.7875049359036
3677.9698058523636
3910.2974295677113
3910.297446170862
3910.2974627654266
3910.2974793514086
-1509.8479227111652
708.1147630770542
902.0854165928217
965.4219301506068
1027.8478954355312
2522.3885848907726
3051.137873594914
3309.021906990981
3444.204207907441
3676.5318316227886
3676.5318482259386
3676.531864820504
3676.531881406485
-1509.8479227111652
493.7355893319528
651.1998513925475
703.2838151236037
755.0882171996809
2249.6289066549225
2778.3781953590637
3036.2622287551303
3171.4445296715903
3403.772153386938
3403.7721699900885
3403.7721865846534
3403.7722031706353
-1509.8479227111652
242.54063843714897
372.8759431027587
416.2313155445386
459.5125502314039
1954.0532396866452
2482.8025283907864
2740.6865617868534
2875.8688627033134
3108.196486418661
3108.1965030218116
3108.1965196163765
3108.1965362023575
-1509.8479227111652
-24.455273639901094
82.6088599415246
118.30930297168214
154.0036946213746
1648.544384076616
2177.2936727807573
2435.177706176824
2570.360007093284
2802.687630808632
2802.687647411782
2802.6876640063474
2802.6876805923284
-1509.8479227111652
-160.56833920015254
-64.26305376351127
-32.13408060647261
0.0
1494.5406894552414
2023.2899781593828
2281.1740115554494
2416.3563124719094
2648.6839361872576
2648.6839527904076
2648.683969384973
2648.683985970954
-1509.8479227111652
-297.3957915991449
-211.40088933316878
-182.70643924615337
-154.0036946213746
1340.5369948338666
1869.2862835380083
2127.170316934075
2262.352617850535
2494.680241565883
2494.680258169033
2494.6802747635984
2494.6802913495794
-1509.8479227111652
-570.5135307668311
-503.93874813823595
-481.727890293108
-459.5125502314039
1035.0281392238376
1563.7774279279788
1821.6614613240454
1956.8437622405054
2189.1713859558536
2189.1714025590036
2189.171419153569
2189.17143573955
-1509.8479227111652
-836.6222614155088
-787.7346260952177
-771.4148893793824
-755.0882171996809
739.4524722555605
1268.201760959702
1526.0857943557685
1661.2680952722285
1893.5957189875767
1893.5957355907267
1893.595752185292
1893.595768771273
-1509.8479227111652
-1084.036163457288
-1050.463219212073
-1039.1776002444349
-1027.8478954355312
466.69279401971016
995.4420827238516
1253.3261161199182
1388.5084170363782
1620.8360407517264
1620.8360573548764
1620.8360739494417
1620.8360905354227
-1509.8479227111652
-1298.3952568183581
-1276.8028496577724
-1269.2890359506682
-1261.6134933804542
232.92719607478716
761.6764847789286
1019.5605181749952
1154.7428190914552
1387.0704428068034
1387.0704594099534
1387.0704760045187
1387.0704925904997
-2207.2500000000005
300.2610561929655
853.9783346541576
1065.2853543852252
1260.4591355231937
2669.419592263065
3246.473822675284
3531.727496710607
3677.8659813143913
3909.143072777891
3909.14309079237
3909.143108796741
3909.143126791005
-2207.2500000000005
523.5496099632123
829.8604147451322
929.8875230202202
1027.8478954355312
2436.8083521754024
3013.8625825876215
3299.116256622944
3445.2547412267286
3676.5318326902284
3676.5318507047077
3676.5318687090785
3676.531886703343
-2207.2500000000005
364.68817344747526
599.9562164307112
677.788253952672
755.0882171996809
2164.0486739395524
2741.102904351771
3026.356578387094
3172.4950629908785
3403.7721544543783
3403.772172468857
3403.772190473229
3403.7722084674924
-2207.2500000000005
134.30917992650893
329.61075955204296
394.62791747678773
459.5125502314039
1868.4730069712753
2445.527237383494
2730.7809114188167
2876.919396022601
3108.1964874861014
3108.1965055005803
3108.196523504951
3108.1965414992155
-2207.2500000000005
-121.92780210200166
43.53477489996283
98.77097005262996
154.0036946213746
1562.964151361246
2140.0183817734646
2425.2720558087876
2571.410540412572
2802.687631876072
2802.687649890551
2802.687667894922
2802.687685889186
-2207.2500000000005
-254.44754989553456
-101.92133513370555
-50.9708573228585
0.0
1408.9604567398715
1986.0146871520901
2271.268361187413
2417.4068457911976
2648.6839372546974
2648.6839552691763
2648.6839732735475
2648.6839912678115
-2207.2500000000005
-388.43068467214493
-247.92983724078977
-200.98170921386782
-154.0036946213746