# vtk DataFile Version 3.0
Kart explore — axes cap, volant, gaz ; temps = vit (voir .pvd)
ASCII
DATASET POLYDATA
POINTS 2574 float
-90.0 -45.0 -4.0
-90.0 -45.0 -3.0
-90.0 -45.0 -2.0
-90.0 -45.0 -1.0
-90.0 -45.0 0.0
-90.0 -45.0 10.0
-90.0 -45.0 20.0
-90.0 -45.0 30.0
-90.0 -45.0 40.0
-90.0 -45.0 50.0
-90.0 -45.0 60.0
-90.0 -45.0 70.0
-90.0 -45.0 80.0
-90.0 -35.0 -4.0
-90.0 -35.0 -3.0
-90.0 -35.0 -2.0
-90.0 -35.0 -1.0
-90.0 -35.0 0.0
-90.0 -35.0 10.0
-90.0 -35.0 20.0
-90.0 -35.0 30.0
-90.0 -35.0 40.0
-90.0 -35.0 50.0
-90.0 -35.0 60.0
-90.0 -35.0 70.0
-90.0 -35.0 80.0
-90.0 -25.0 -4.0
-90.0 -25.0 -3.0
-90.0 -25.0 -2.0
-90.0 -25.0 -1.0
-90.0 -25.0 0.0
-90.0 -25.0 10.0
-90.0 -25.0 20.0
-90.0 -25.0 30.0
-90.0 -25.0 40.0
-90.0 -25.0 50.0
-90.0 -25.0 60.0
-90.0 -25.0 70.0
-90.0 -25.0 80.0
-90.0 -15.0 -4.0
-90.0 -15.0 -3.0
-90.0 -15.0 -2.0
-90.0 -15.0 -1.0
-90.0 -15.0 0.0
-90.0 -15.0 10.0
-90.0 -15.0 20.0
-90.0 -15.0 30.0
-90.0 -15.0 40.0
-90.0 -15.0 50.0
-90.0 -15.0 60.0
-90.0 -15.0 70.0
-90.0 -15.0 80.0
-90.0 -5.0 -4.0
-90.0 -5.0 -3.0
-90.0 -5.0 -2.0
-90.0 -5.0 -1.0
-90.0 -5.0 0.0
-90.0 -5.0 10.0
-90.0 -5.0 20.0
-90.0 -5.0 30.0
-90.0 -5.0 40.0
-90.0 -5.0 50.0
-90.0 -5.0 60.0
-90.0 -5.0 70.0
-90.0 -5.0 80.0
-90.0 0.0 -4.0
-90.0 0.0 -3.0
-90.0 0.0 -2.0
-90.0 0.0 -1.0
-90.0 0.0 0.0
-90.0 0.0 10.0
-90.0 0.0 20.0
-90.0 0.0 30.0
-90.0 0.0 40.0
-90.0 0.0 50.0
-90.0 0.0 60.0
-90.0 0.0 70.0
-90.0 0.0 80.0
-90.0 5.0 -4.0
-90.0 5.0 -3.0
-90.0 5.0 -2.0
-90.0 5.0 -1.0
-90.0 5.0 0.0
-90.0 5.0 10.0
-90.0 5.0 20.0
-90.0 5.0 30.0
-90.0 5.0 40.0
-90.0 5.0 50.0
-90.0 5.0 60.0
-90.0 5.0 70.0
-90.0 5.0 80.0
-90.0 15.0 -4.0
-90.0 15.0 -3.0
-90.0 15.0 -2.0
-90.0 15.0 -1.0
-90.0 15.0 0.0
-90.0 15.0 10.0
-90.0 15.0 20.0
-90.0 15.0 30.0
-90.0 15.0 40.0
-90.0 15.0 50.0
-90.0 15.0 60.0
-90.0 15.0 70.0
-90.0 15.0 80.0
-90.0 25.0 -4.0
-90.0 25.0 -3.0
-90.0 25.0 -2.0
-90.0 25.0 -1.0
-90.0 25.0 0.0
-90.0 25.0 10.0
-90.0 25.0 20.0
-90.0 25.0 30.0
-90.0 25.0 40.0
-90.0 25.0 50.0
-90.0 25.0 60.0
-90.0 25.0 70.0
-90.0 25.0 80.0
-90.0 35.0 -4.0
-90.0 35.0 -3.0
-90.0 35.0 -2.0
-90.0 35.0 -1.0
-90.0 35.0 0.0
-90.0 35.0 10.0
-90.0 35.0 20.0
-90.0 35.0 30.0
-90.0 35.0 40.0
-90.0 35.0 50.0
-90.0 35.0 60.0
-90.0 35.0 70.0
-90.0 35.0 80.0
-90.0 45.0 -4.0
-90.0 45.0 -3.0
-90.0 45.0 -2.0
-90.0 45.0 -1.0
-90.0 45.0 0.0
-90.0 45.0 10.0
-90.0 45.0 20.0
-90.0 45.0 30.0
-90.0 45.0 40.0
-90.0 45.0 50.0
-90.0 45.0 60.0
-90.0 45.0 70.0
-90.0 45.0 80.0
-80.0 -45.0 -4.0
-80.0 -45.0 -3.0
-80.0 -45.0 -2.0
-80.0 -45.0 -1.0
-80.0 -45.0 0.0
-80.0 -45.0 10.0
-80.0 -45.0 20.0
-80.0 -45.0 30.0
-80.0 -45.0 40.0
-80.0 -45.0 50.0
-80.0 -45.0 60.0
-80.0 -45.0 70.0
-80.0 -45.0 80.0
-80.0 -35.0 -4.0
-80.0 -35.0 -3.0
-80.0 -35.0 -2.0
-80.0 -35.0 -1.0
-80.0 -35.0 0.0
-80.0 -35.0 10.0
-80.0 -35.0 20.0
-80.0 -35.0 30.0
-80.0 -35.0 40.0
-80.0 -35.0 50.0
-80.0 -35.0 60.0
-80.0 -35.0 70.0
-80.0 -35.0 80.0
-80.0 -25.0 -4.0
-80.0 -25.0 -3.0
-80.0 -25.0 -2.0
-80.0 -25.0 -1.0
-80.0 -25.0 0.0
-80.0 -25.0 10.0
-80.0 -25.0 20.0
-80.0 -25.0 30.0
-80.0 -25.0 40.0
-80.0 -25.0 50.0
-80.0 -25.0 60.0
-80.0 -25.0 70.0
-80.0 -25.0 80.0
-80.0 -15.0 -4.0
-80.0 -15.0 -3.0
-80.0 -15.0 -2.0
-80.0 -15.0 -1.0
-80.0 -15.0 0.0
-80.0 -15.0 10.0
-80.0 -15.0 20.0
-80.0 -15.0 30.0
-80.0 -15.0 40.0
-80.0 -15.0 50.0
-80.0 -15.0 60.0
-80.0 -15.0 70.0
-80.0 -15.0 80.0
-80.0 -5.0 -4.0
-80.0 -5.0 -3.0
-80.0 -5.0 -2.0
-80.0 -5.0 -1.0
-80.0 -5.0 0.0
-80.0 -5.0 10.0
-80.0 -5.0 20.0
-80.0 -5.0 30.0
-80.0 -5.0 40.0
-80.0 -5.0 50.0
-80.0 -5.0 60.0
-80.0 -5.0 70.0
-80.0 -5.0 80.0
-80.0 0.0 -4.0
-80.0 0.0 -3.0
-80.0 0.0 -2.0
-80.0 0.0 -1.0
-80.0 0.0 0.0
-80.0 0.0 10.0
-80.0 0.0 20.0
-80.0 0.0 30.0
-80.0 0.0 40.0
-80.0 0.0 50.0
-80.0 0.0 60.0
-80.0 0.0 70.0
-80.0 0.0 80.0
-80.0 5.0 -4.0
-80.0 5.0 -3.0
-80.0 5.0 -2.0
-80.0 5.0 -1.0
-80.0 5.0 0.0
-80.0 5.0 10.0
-80.0 5.0 20.0
-80.0 5.0 30.0
-80.0 5.0 40.0
-80.0 5.0 50.0
-80.0 5.0 60.0
-80.0 5.0 70.0
-80.0 5.0 80.0
-80.0 15.0 -4.0
-80.0 15.0 -3.0
-80.0 15.0 -2.0
-80.0 15.0 -1.0
-80.0 15.0 0.0
-80.0 15.0 10.0
-80.0 15.0 20.0
-80.0 15.0 30.0
-80.0 15.0 40.0
-80.0 15.0 50.0
-80.0 15.0 60.0
-80.0 15.0 70.0
-80.0 15.0 80.0
-80.0 25.0 -4.0
-80.0 25.0 -3.0
-80.0 25.0 -2.0
-80.0 25.0 -1.0
-80.0 25.0 0.0
-80.0 25.0 10.0
-80.0 25.0 20.0
-80.0 25.0 30.0
-80.0 25.0 40.0
-80.0 25.0 50.0
-80.0 25.0 60.0
-80.0 25.0 70.0
-80.0 25.0 80.0
-80.0 35.0 -4.0
-80.0 35.0 -3.0
-80.0 35.0 -2.0
-80.0 35.0 -1.0
-80.0 35.0 0.0
-80.0 35.0 10.0
-80.0 35.0 20.0
-80.0 35.0 30.0
-80.0 35.0 40.0
-80.0 35.0 50.0
-80.0 35.0 60.0
-80.0 35.0 70.0
-80.0 35.0 80.0
-80.0 45.0 -4.0
-80.0 45.0 -3.0
-80.0 45.0 -2.0
-80.0 45.0 -1.0
-80.0 45.0 0.0
-80.0 45.0 10.0
-80.0 45.0 20.0
-80.0 45.0 30.0
-80.0 45.0 40.0
-80.0 45.0 50.0
-80.0 45.0 60.0
-80.0 45.0 70.0
-80.0 45.0 80.0
-70.0 -45.0 -4.0
-70.0 -45.0 -3.0
-70.0 -45.0 -2.0
-70.0 -45.0 -1.0
-70.0 -45.0 0.0
-70.0 -45.0 10.0
-70.0 -45.0 20.0
-70.0 -45.0 30.0
-70.0 -45.0 40.0
-70.0 -45.0 50.0
-70.0 -45.0 60.0
-70.0 -45.0 70.0
-70.0 -45.0 80.0
-70.0 -35.0 -4.0
-70.0 -35.0 -3.0
-70.0 -35.0 -2.0
-70.0 -35.0 -1.0
-70.0 -35.0 0.0
-70.0 -35.0 10.0
-70.0 -35.0 20.0
-70.0 -35.0 30.0
-70.0 -35.0 40.0
-70.0 -35.0 50.0
-70.0 -35.0 60.0
-70.0 -35.0 70.0
-70.0 -35.0 80.0
-70.0 -25.0 -4.0
-70.0 -25.0 -3.0
-70.0 -25.0 -2.0
-70.0 -25.0 -1.0
-70.0 -25.0 0.0
-70.0 -25.0 10.0
-70.0 -25.0 20.0
-70.0 -25.0 30.0
-70.0 -25.0 40.0
-70.0 -25.0 50.0
-70.0 -25.0 60.0
-70.0 -25.0 70.0
-70.0 -25.0 80.0
-70.0 -15.0 -4.0
-70.0 -15.0 -3.0
-70.0 -15.0 -2.0
-70.0 -15.0 -1.0
-70.0 -15.0 0.0
-70.0 -15.0 10.0
-70.0 -15.0 20.0
-70.0 -15.0 30.0
-70.0 -15.0 40.0
-70.0 -15.0 50.0
-70.0 -15.0 60.0
-70.0 -15.0 70.0
-70.0 -15.0 80.0
-70.0 -5.0 -4.0
-70.0 -5.0 -3.0
-70.0 -5.0 -2.0
-70.0 -5.0 -1.0
-70.0 -5.0 0.0
-70.0 -5.0 10.0
-70.0 -5.0 20.0
-70.0 -5.0 30.0
-70.0 -5.0 40.0
-70.0 -5.0 50.0
-70.0 -5.0 60.0
-70.0 -5.0 70.0
-70.0 -5.0 80.0
-70.0 0.0 -4.0
-70.0 0.0 -3.0
-70.0 0.0 -2.0
-70.0 0.0 -1.0
-70.0 0.0 0.0
-70.0 0.0 10.0
-70.0 0.0 20.0
-70.0 0.0 30.0
-70.0 0.0 40.0
-70.0 0.0 50.0
-70.0 0.0 60.0
-70.0 0.0 70.0
-70.0 0.0 80.0
-70.0 5.0 -4.0
-70.0 5.0 -3.0
-70.0 5.0 -2.0
-70.0 5.0 -1.0
-70.0 5.0 0.0
-70.0 5.0 10.0
-70.0 5.0 20.0
-70.0 5.0 30.0
-70.0 5.0 40.0
-70.0 5.0 50.0
-70.0 5.0 60.0
-70.0 5.0 70.0
-70.0 5.0 80.0
-70.0 15.0 -4.0
-70.0 15.0 -3.0
-70.0 15.0 -2.0
-70.0 15.0 -1.0
-70.0 15.0 0.0
-70.0 15.0 10.0
-70.0 15.0 20.0
-70.0 15.0 30.0
-70.0 15.0 40.0
-70.0 15.0 50.0
-70.0 15.0 60.0
-70.0 15.0 70.0
-70.0 15.0 80.0
-70.0 25.0 -4.0
-70.0 25.0 -3.0
-70.0 25.0 -2.0
-70.0 25.0 -1.0
-70.0 25.0 0.0
-70.0 25.0 10.0
-70.0 25.0 20.0
-70.0 25.0 30.0
-70.0 25.0 40.0
-70.0 25.0 50.0
-70.0 25.0 60.0
-70.0 25.0 70.0
-70.0 25.0 80.0
-70.0 35.0 -4.0
-70.0 35.0 -3.0
-70.0 35.0 -2.0
-70.0 35.0 -1.0
-70.0 35.0 0.0
-70.0 35.0 10.0
-70.0 35.0 20.0
-70.0 35.0 30.0
-70.0 35.0 40.0
-70.0 35.0 50.0
-70.0 35.0 60.0
-70.0 35.0 70.0
-70.0 35.0 80.0
-70.0 45.0 -4.0
-70.0 45.0 -3.0
-70.0 45.0 -2.0
-70.0 45.0 -1.0
-70.0 45.0 0.0
-70.0 45.0 10.0
-70.0 45.0 20.0
-70.0 45.0 30.0
-70.0 45.0 40.0
-70.0 45.0 50.0
-70.0 45.0 60.0
-70.0 45.0 70.0
-70.0 45.0 80.0
-59.99999999999999 -45.0 -4.0
-59.99999999999999 -45.0 -3.0
-59.99999999999999 -45.0 -2.0
-59.99999999999999 -45.0 -1.0
-59.99999999999999 -45.0 0.0
-59.99999999999999 -45.0 10.0
-59.99999999999999 -45.0 20.0
-59.99999999999999 -45.0 30.0
-59.99999999999999 -45.0 40.0
-59.99999999999999 -45.0 50.0
-59.99999999999999 -45.0 60.0
-59.99999999999999 -45.0 70.0
-59.99999999999999 -45.0 80.0
-59.99999999999999 -35.0 -4.0
-59.99999999999999 -35.0 -3.0
-59.99999999999999 -35.0 -2.0
-59.99999999999999 -35.0 -1.0
-59.99999999999999 -35.0 0.0
-59.99999999999999 -35.0 10.0
-59.99999999999999 -35.0 20.0
-59.99999999999999 -35.0 30.0
-59.99999999999999 -35.0 40.0
-59.99999999999999 -35.0 50.0
-59.99999999999999 -35.0 60.0
-59.99999999999999 -35.0 70.0
-59.99999999999999 -35.0 80.0
-59.99999999999999 -25.0 -4.0
-59.99999999999999 -25.0 -3.0
-59.99999999999999 -25.0 -2.0
-59.99999999999999 -25.0 -1.0
-59.99999999999999 -25.0 0.0
-59.99999999999999 -25.0 10.0
-59.99999999999999 -25.0 20.0
-59.99999999999999 -25.0 30.0
-59.99999999999999 -25.0 40.0
-59.99999999999999 -25.0 50.0
-59.99999999999999 -25.0 60.0
-59.99999999999999 -25.0 70.0
-59.99999999999999 -25.0 80.0
-59.99999999999999 -15.0 -4.0
-59.99999999999999 -15.0 -3.0
-59.99999999999999 -15.0 -2.0
-59.99999999999999 -15.0 -1.0
-59.99999999999999 -15.0 0.0
-59.99999999999999 -15.0 10.0
-59.99999999999999 -15.0 20.0
-59.99999999999999 -15.0 30.0
-59.99999999999999 -15.0 40.0
-59.99999999999999 -15.0 50.0
-59.99999999999999 -15.0 60.0
-59.99999999999999 -15.0 70.0
-59.99999999999999 -15.0 80.0
-59.99999999999999 -5.0 -4.0
-59.99999999999999 -5.0 -3.0
-59.99999999999999 -5.0 -2.0
-59.99999999999999 -5.0 -1.0
-59.99999999999999 -5.0 0.0
-59.99999999999999 -5.0 10.0
-59.99999999999999 -5.0 20.0
-59.99999999999999 -5.0 30.0
-59.99999999999999 -5.0 40.0
-59.99999999999999 -5.0 50.0
-59.99999999999999 -5.0 60.0
-59.99999999999999 -5.0 70.0
-59.99999999999999 -5.0 80.0
-59.99999999999999 0.0 -4.0
-59.99999999999999 0.0 -3.0
-59.99999999999999 0.0 -2.0
-59.99999999999999 0.0 -1.0
-59.99999999999999 0.0 0.0
-59.99999999999999 0.0 10.0
-59.99999999999999 0.0 20.0
-59.99999999999999 0.0 30.0
-59.99999999999999 0.0 40.0
-59.99999999999999 0.0 50.0
-59.99999999999999 0.0 60.0
-59.99999999999999 0.0 70.0
-59.99999999999999 0.0 80.0
-59.99999999999999 5.0 -4.0
-59.99999999999999 5.0 -3.0
-59.99999999999999 5.0 -2.0
-59.99999999999999 5.0 -1.0
-59.99999999999999 5.0 0.0
-59.99999999999999 5.0 10.0
-59.99999999999999 5.0 20.0
-59.99999999999999 5.0 30.0
-59.99999999999999 5.0 40.0
-59.99999999999999 5.0 50.0
-59.99999999999999 5.0 60.0
-59.99999999999999 5.0 70.0
-59.99999999999999 5.0 80.0
-59.99999999999999 15.0 -4.0
-59.99999999999999 15.0 -3.0
-59.99999999999999 15.0 -2.0
-59.99999999999999 15.0 -1.0
-59.99999999999999 15.0 0.0
-59.99999999999999 15.0 10.0
-59.99999999999999 15.0 20.0
-59.99999999999999 15.0 30.0
-59.99999999999999 15.0 40.0
-59.99999999999999 15.0 50.0
[...]
POINT_DATA 2574
SCALARS vitesse float 1
LOOKUP_TABLE default
10.0
10.0
10.0
10.0
10.0
10.0
10.0
10.0
10.0
10.0
10.0
10.0
10.0
10.0
10.0
10.0
10.0
10.0
10.0
10.0
10.0
10.0
10.0
10.0
10.0
10.0
10.0
10.0
10.0
10.0
10.0
10.0
10.0
10.0
10.0
10.0
10.0
10.0
10.0
10.0
10.0
10.0
10.0
10.0
10.0
10.0
10.0
10.0
10.0
10.0
10.0
10.0
10.0
10.0
10.0
10.0
10.0
10.0
10.0
10.0
10.0
10.0
10.0
10.0
10.0
10.0
10.0
10.0
10.0
10.0
10.0
10.0
10.0
10.0
10.0
10.0
10.0
10.0
10.0
10.0
10.0
10.0
10.0
10.0
10.0
10.0
10.0
10.0
10.0
10.0
10.0
10.0
10.0
10.0
10.0
10.0
10.0
10.0
10.0
10.0
10.0
10.0
10.0
10.0
10.0
10.0
10.0
10.0
10.0
10.0
10.0
10.0
10.0
10.0
10.0
10.0
10.0
10.0
10.0
10.0
10.0
10.0
10.0
10.0
10.0
10.0
10.0
10.0
10.0
10.0
10.0
10.0
10.0
10.0
10.0
10.0
10.0
10.0
10.0
10.0
10.0
10.0
10.0
10.0
10.0
10.0
10.0
10.0
10.0
10.0
10.0
10.0
10.0
10.0
10.0
10.0
10.0
10.0
10.0
10.0
10.0
10.0
10.0
10.0
10.0
10.0
10.0
10.0
10.0
10.0
10.0
10.0
10.0
10.0
10.0
10.0
10.0
10.0
10.0
10.0
10.0
10.0
10.0
10.0
10.0
10.0
10.0
10.0
10.0
10.0
10.0
10.0
10.0
10.0
10.0
10.0
10.0
10.0
10.0
10.0
10.0
10.0
10.0
10.0
10.0
10.0
10.0
10.0
10.0
10.0
10.0
10.0
10.0
10.0
10.0
10.0
10.0
10.0
10.0
10.0
10.0
10.0
10.0
10.0
10.0
10.0
10.0
10.0
10.0
10.0
10.0
10.0
10.0
10.0
10.0
10.0
10.0
10.0
10.0
10.0
10.0
10.0
10.0
10.0
10.0
10.0
10.0
10.0
10.0
10.0
10.0
10.0
10.0
10.0
10.0
10.0
10.0
10.0
10.0
10.0
10.0
10.0
10.0
10.0
10.0
10.0
10.0
10.0
10.0
10.0
10.0
10.0
10.0
10.0
10.0
10.0
10.0
10.0
10.0
10.0
10.0
10.0
10.0
10.0
10.0
10.0
10.0
10.0
10.0
10.0
10.0
10.0
10.0
10.0
10.0
10.0
10.0
10.0
10.0
10.0
10.0
10.0
10.0
10.0
10.0
10.0
10.0
10.0
10.0
10.0
10.0
10.0
10.0
10.0
10.0
10.0
10.0
10.0
10.0
10.0
10.0
10.0
10.0
10.0
10.0
10.0
10.0
10.0
10.0
10.0
10.0
10.0
10.0
10.0
10.0
10.0
10.0
10.0
10.0
10.0
10.0
10.0
10.0
10.0
10.0
10.0
10.0
10.0
10.0
10.0
10.0
10.0
10.0
10.0
10.0
10.0
10.0
10.0
10.0
10.0
10.0
10.0
10.0
10.0
10.0
10.0
10.0
10.0
10.0
10.0
10.0
10.0
10.0
10.0
10.0
10.0
10.0
10.0
10.0
10.0
10.0
10.0
10.0
10.0
10.0
10.0
10.0
10.0
10.0
10.0
10.0
10.0
10.0
10.0
10.0
10.0
10.0
10.0
10.0
10.0
10.0
10.0
10.0
10.0
10.0
10.0
10.0
10.0
10.0
10.0
10.0
10.0
10.0
10.0
10.0
10.0
10.0
10.0
10.0
10.0
10.0
10.0
10.0
10.0
10.0
10.0
10.0
10.0
10.0
10.0
10.0
10.0
10.0
10.0
10.0
10.0
10.0
10.0
10.0
10.0
10.0
10.0
10.0
10.0
10.0
10.0
10.0
10.0
10.0
10.0
10.0
10.0
10.0
10.0
10.0
10.0
10.0
10.0
10.0
10.0
10.0
10.0
10.0
10.0
10.0
10.0
10.0
10.0
10.0
10.0
10.0
10.0
10.0
10.0
10.0
10.0
10.0
10.0
10.0
10.0
10.0
10.0
10.0
10.0
10.0
10.0
10.0
10.0
10.0
10.0
10.0
10.0
10.0
10.0
10.0
10.0
10.0
10.0
10.0
10.0
10.0
10.0
10.0
10.0
10.0
10.0
10.0
10.0
10.0
10.0
10.0
10.0
10.0
10.0
10.0
10.0
10.0
10.0
10.0
10.0
10.0
10.0
10.0
10.0
10.0
10.0
10.0
10.0
10.0
10.0
10.0
10.0
10.0
10.0
10.0
10.0
10.0
10.0
10.0
10.0
10.0
10.0
10.0
10.0
10.0
10.0
10.0
10.0
10.0
10.0
10.0
10.0
10.0
10.0
10.0
10.0
10.0
10.0
10.0
10.0
10.0
10.0
10.0
10.0
10.0
10.0
10.0
10.0
10.0
10.0
10.0
10.0
10.0
10.0
10.0
10.0
10.0
10.0
10.0
10.0
10.0
10.0
10.0
10.0
10.0
10.0
10.0
10.0
10.0
10.0
10.0
10.0
10.0
10.0
10.0
10.0
10.0
10.0
10.0
10.0
10.0
10.0
10.0
10.0
10.0
10.0
10.0
10.0
10.0
10.0
10.0
10.0
10.0
10.0
10.0
10.0
10.0
10.0
10.0
10.0
10.0
10.0
10.0
10.0
10.0
10.0
10.0
10.0
10.0
10.0
10.0
10.0
10.0
10.0
10.0
10.0
10.0
10.0
10.0
10.0
10.0
10.0
10.0
10.0
10.0
10.0
10.0
10.0
10.0
10.0
10.0
10.0
10.0
10.0
10.0
10.0
10.0
10.0
10.0
10.0
10.0
10.0
10.0
10.0
10.0
10.0
10.0
10.0
10.0
10.0
10.0
10.0
10.0
10.0
10.0
10.0
10.0
10.0
10.0
10.0
10.0
10.0
10.0
10.0
10.0
10.0
10.0
10.0
10.0
10.0
10.0
10.0
10.0
10.0
10.0
10.0
10.0
10.0
10.0
10.0
10.0
10.0
10.0
10.0
10.0
10.0
10.0
10.0
10.0
10.0
10.0
10.0
10.0
10.0
10.0
10.0
10.0
10.0
10.0
10.0
10.0
10.0
10.0
10.0
10.0
10.0
10.0
10.0
10.0
10.0
10.0
10.0
10.0
10.0
10.0
10.0
10.0
10.0
10.0
10.0
10.0
10.0
10.0
10.0
10.0
10.0
10.0
10.0
10.0
10.0
10.0
10.0
10.0
10.0
10.0
10.0
10.0
10.0
10.0
10.0
10.0
10.0
10.0
10.0
10.0
10.0
10.0
10.0
10.0
10.0
10.0
10.0
10.0
10.0
10.0
10.0
10.0
10.0
10.0
10.0
10.0
10.0
10.0
10.0
10.0
10.0
10.0
10.0
10.0
10.0
10.0
10.0
10.0
10.0
10.0
10.0
10.0
10.0
10.0
10.0
10.0
10.0
10.0
10.0
10.0
10.0
10.0
10.0
10.0
10.0
10.0
10.0
10.0
10.0
10.0
10.0
10.0
10.0
10.0
10.0
10.0
10.0
10.0
10.0
10.0
10.0
10.0
10.0
10.0
10.0
10.0
10.0
10.0
10.0
10.0
10.0
10.0
10.0
10.0
10.0
10.0
10.0
10.0
10.0
10.0
10.0
10.0
10.0
10.0
10.0
10.0
10.0
10.0
10.0
10.0
10.0
10.0
10.0
10.0
10.0
10.0
10.0
10.0
10.0
10.0
10.0
10.0
10.0
10.0
10.0
10.0
10.0
10.0
10.0
10.0
10.0
10.0
10.0
10.0
10.0
10.0
10.0
10.0
10.0
10.0
10.0
10.0
10.0
10.0
10.0
10.0
10.0
10.0
10.0
10.0
10.0
10.0
10.0
10.0
10.0
10.0
10.0
10.0
10.0
10.0
10.0
10.0
10.0
10.0
10.0
10.0
10.0
10.0
10.0
10.0
10.0
10.0
10.0
10.0
10.0
10.0
10.0
10.0
10.0
10.0
10.0
10.0
10.0
10.0
10.0
10.0
10.0
10.0
10.0
10.0
10.0
10.0
10.0
10.0
10.0
10.0
10.0
10.0
10.0
10.0
10.0
10.0
10.0
10.0
10.0
10.0
10.0
10.0
10.0
10.0
10.0
10.0
10.0
10.0
10.0
10.0
10.0
10.0
10.0
10.0
10.0
10.0
10.0
10.0
10.0
10.0
10.0
10.0
10.0
10.0
10.0
10.0
10.0
10.0
10.0
10.0
10.0
10.0
10.0
10.0
10.0
10.0
10.0
10.0
10.0
10.0
10.0
10.0
10.0
10.0
10.0
10.0
10.0
10.0
10.0
10.0
10.0
10.0
10.0
10.0
10.0
10.0
10.0
10.0
10.0
10.0
10.0
10.0
10.0
10.0
10.0
10.0
10.0
10.0
10.0
10.0
10.0
10.0
10.0
10.0
10.0
10.0
10.0
10.0
10.0
10.0
10.0
10.0
10.0
10.0
10.0
10.0
10.0
10.0
10.0
10.0
10.0
10.0
10.0
10.0
10.0
10.0
10.0
10.0
10.0
10.0
10.0
10.0
10.0
10.0
10.0
10.0
10.0
10.0
10.0
10.0
10.0
10.0
10.0
10.0
10.0
10.0
10.0
10.0
10.0
10.0
10.0
10.0
10.0
10.0
10.0
10.0
10.0
10.0
10.0
10.0
10.0
10.0
10.0
10.0
10.0
10.0
10.0
10.0
10.0
10.0
10.0
10.0
10.0
10.0
10.0
10.0
10.0
10.0
10.0
10.0
10.0
10.0
10.0
10.0
10.0
10.0
10.0
10.0
10.0
10.0
10.0
10.0
10.0
10.0
10.0
10.0
10.0
10.0
10.0
10.0
10.0
10.0
10.0
10.0
10.0
10.0
10.0
10.0
10.0
10.0
10.0
10.0
10.0
10.0
10.0
10.0
10.0
10.0
10.0
10.0
10.0
10.0
10.0
10.0
10.0
10.0
10.0
10.0
10.0
10.0
10.0
10.0
10.0
10.0
10.0
10.0
10.0
10.0
10.0
10.0
10.0
10.0
10.0
10.0
10.0
10.0
10.0
10.0
10.0
10.0
10.0
10.0
10.0
10.0
10.0
10.0
10.0
10.0
10.0
10.0
10.0
10.0
10.0
10.0
10.0
10.0
10.0
10.0
10.0
10.0
10.0
10.0
10.0
10.0
10.0
10.0
10.0
10.0
10.0
10.0
10.0
10.0
10.0
10.0
10.0
10.0
10.0
10.0
10.0
10.0
10.0
10.0
10.0
10.0
10.0
10.0
10.0
10.0
10.0
10.0
10.0
10.0
10.0
10.0
10.0
10.0
10.0
10.0
10.0
10.0
10.0
10.0
10.0
10.0
10.0
10.0
10.0
10.0
10.0
10.0
10.0
10.0
10.0
10.0
10.0
10.0
10.0
10.0
10.0
10.0
10.0
10.0
10.0
10.0
10.0
10.0
10.0
10.0
10.0
10.0
10.0
10.0
10.0
10.0
10.0
10.0
10.0
10.0
10.0
10.0
10.0
10.0
10.0
10.0
10.0
10.0
10.0
10.0
10.0
10.0
10.0
10.0
10.0
10.0
10.0
10.0
10.0
10.0
10.0
10.0
10.0
10.0
10.0
10.0
10.0
10.0
10.0
10.0
10.0
10.0
10.0
10.0
10.0
10.0
10.0
10.0
10.0
10.0
10.0
10.0
10.0
10.0
10.0
10.0
10.0
10.0
10.0
10.0
10.0
10.0
10.0
10.0
10.0
10.0
10.0
10.0
10.0
10.0
10.0
10.0
10.0
10.0
10.0
10.0
10.0
10.0
10.0
10.0
10.0
10.0
10.0
10.0
10.0
10.0
10.0
10.0
10.0
10.0
10.0
10.0
10.0
10.0
10.0
10.0
10.0
10.0
10.0
10.0
10.0
10.0
10.0
10.0
10.0
10.0
10.0
10.0
10.0
10.0
10.0
10.0
10.0
10.0
10.0
10.0
10.0
10.0
10.0
10.0
10.0
10.0
10.0
10.0
10.0
10.0
10.0
10.0
10.0
10.0
10.0
10.0
10.0
10.0
10.0
10.0
10.0
10.0
10.0
10.0
10.0
10.0
10.0
10.0
10.0
10.0
10.0
10.0
10.0
10.0
10.0
10.0
10.0
10.0
10.0
10.0
10.0
10.0
10.0
10.0
10.0
10.0
10.0
10.0
10.0
10.0
10.0
10.0
10.0
10.0
10.0
10.0
10.0
10.0
10.0
10.0
10.0
10.0
10.0
10.0
10.0
10.0
10.0
10.0
10.0
10.0
10.0
10.0
10.0
10.0
10.0
10.0
10.0
10.0
10.0
10.0
10.0
10.0
10.0
10.0
10.0
10.0
10.0
10.0
10.0
10.0
10.0
10.0
10.0
10.0
10.0
10.0
10.0
10.0
10.0
10.0
10.0
10.0
10.0
10.0
10.0
10.0
10.0
10.0
10.0
10.0
10.0
10.0
10.0
10.0
10.0
10.0
10.0
10.0
10.0
10.0
10.0
10.0
10.0
10.0
10.0
10.0
10.0
10.0
10.0
10.0
10.0
10.0
10.0
10.0
10.0
10.0
10.0
10.0
10.0
10.0
10.0
10.0
10.0
10.0
10.0
10.0
10.0
10.0
10.0
10.0
10.0
10.0
10.0
10.0
10.0
10.0
10.0
10.0
10.0
10.0
10.0
10.0
10.0
10.0
10.0
10.0
10.0
10.0
10.0
10.0
10.0
10.0
10.0
10.0
10.0
10.0
10.0
10.0
10.0
10.0
10.0
10.0
10.0
10.0
10.0
10.0
10.0
10.0
10.0
10.0
10.0
10.0
10.0
10.0
10.0
10.0
10.0
10.0
10.0
10.0
10.0
10.0
10.0
10.0
10.0
10.0
10.0
10.0
10.0
10.0
10.0
10.0
10.0
10.0
10.0
10.0
10.0
10.0
10.0
10.0
10.0
10.0
10.0
10.0
10.0
10.0
10.0
10.0
10.0
10.0
10.0
10.0
10.0
10.0
10.0
10.0
10.0
10.0
10.0
10.0
10.0
10.0
10.0
10.0
10.0
10.0
10.0
10.0
10.0
10.0
10.0
10.0
10.0
10.0
10.0
10.0
10.0
10.0
10.0
10.0
10.0
10.0
10.0
10.0
10.0
10.0
10.0
10.0
10.0
10.0
10.0
10.0
10.0
10.0
10.0
10.0
10.0
10.0
10.0
10.0
10.0
10.0
10.0
10.0
10.0
10.0
10.0
10.0
10.0
10.0
10.0
10.0
10.0
10.0
10.0
10.0
10.0
10.0
10.0
10.0
10.0
10.0
10.0
10.0
10.0
10.0
10.0
10.0
10.0
10.0
10.0
10.0
10.0
10.0
10.0
10.0
10.0
10.0
10.0
10.0
10.0
10.0
10.0
10.0
10.0
10.0
10.0
10.0
10.0
10.0
10.0
10.0
10.0
10.0
10.0
10.0
10.0
10.0
10.0
10.0
10.0
10.0
10.0
10.0
10.0
10.0
10.0
10.0
10.0
10.0
10.0
10.0
10.0
10.0
10.0
10.0
10.0
10.0
10.0
10.0
10.0
10.0
10.0
10.0
10.0
10.0
10.0
10.0
10.0
10.0
10.0
10.0
10.0
10.0
10.0
10.0
10.0
10.0
10.0
10.0
10.0
10.0
10.0
10.0
10.0
10.0
10.0
10.0
10.0
10.0
10.0
10.0
10.0
10.0
10.0
10.0
10.0
10.0
10.0
10.0
10.0
10.0
10.0
10.0
10.0
10.0
10.0
10.0
10.0
10.0
10.0
10.0
10.0
10.0
10.0
10.0
10.0
10.0
10.0
10.0
10.0
10.0
10.0
10.0
10.0
10.0
10.0
10.0
10.0
10.0
10.0
10.0
10.0
10.0
10.0
10.0
10.0
10.0
10.0
10.0
10.0
10.0
10.0
10.0
10.0
10.0
10.0
10.0
10.0
10.0
10.0
10.0
10.0
10.0
10.0
10.0
10.0
10.0
10.0
10.0
10.0
10.0
10.0
10.0
10.0
10.0
10.0
10.0
10.0
10.0
10.0
10.0
10.0
10.0
10.0
10.0
10.0
10.0
10.0
10.0
10.0
10.0
10.0
10.0
10.0
10.0
10.0
10.0
10.0
10.0
10.0
10.0
10.0
10.0
10.0
10.0
10.0
10.0
10.0
10.0
10.0
10.0
10.0
10.0
10.0
10.0
10.0
10.0
10.0
10.0
10.0
10.0
10.0
10.0
10.0
10.0
10.0
10.0
10.0
10.0
10.0
10.0
10.0
10.0
10.0
10.0
10.0
10.0
10.0
10.0
10.0
10.0
10.0
10.0
10.0
10.0
10.0
10.0
10.0
10.0
10.0
10.0
10.0
10.0
10.0
10.0
10.0
10.0
10.0
10.0
10.0
10.0
10.0
10.0
10.0
10.0
10.0
10.0
10.0
10.0
10.0
10.0
10.0
10.0
10.0
10.0
10.0
10.0
10.0
10.0
10.0
10.0
10.0
10.0
10.0
10.0
10.0
10.0
10.0
10.0
10.0
10.0
10.0
10.0
10.0
10.0
10.0
10.0
10.0
10.0
10.0
10.0
10.0
10.0
10.0
10.0
10.0
10.0
10.0
10.0
10.0
10.0
10.0
10.0
10.0
10.0
10.0
10.0
10.0
10.0
10.0
10.0
10.0
10.0
10.0
10.0
10.0
10.0
10.0
10.0
10.0
10.0
10.0
10.0
10.0
10.0
10.0
10.0
10.0
10.0
10.0
10.0
10.0
10.0
10.0
10.0
10.0
10.0
10.0
10.0
10.0
10.0
10.0
10.0
10.0
10.0
10.0
10.0
10.0
10.0
10.0
10.0
10.0
10.0
10.0
10.0
10.0
10.0
10.0
10.0
10.0
10.0
10.0
10.0
10.0
10.0
10.0
10.0
10.0
10.0
10.0
10.0
10.0
10.0
10.0
10.0
10.0
10.0
10.0
10.0
10.0
10.0
10.0
10.0
10.0
10.0
10.0
10.0
10.0
10.0
10.0
10.0
10.0
10.0
10.0
10.0
10.0
10.0
10.0
10.0
10.0
10.0
10.0
10.0
10.0
10.0
10.0
10.0
10.0
10.0
10.0
10.0
10.0
10.0
10.0
10.0
10.0
10.0
10.0
10.0
10.0
10.0
10.0
10.0
10.0
10.0
10.0
10.0
10.0
10.0
10.0
10.0
10.0
10.0
10.0
10.0
10.0
10.0
10.0
10.0
10.0
10.0
10.0
10.0
10.0
10.0
10.0
10.0
10.0
10.0
10.0
10.0
10.0
10.0
10.0
10.0
10.0
10.0
10.0
10.0
10.0
10.0
10.0
10.0
10.0
10.0
10.0
10.0
10.0
10.0
10.0
10.0
10.0
10.0
10.0
10.0
10.0
10.0
10.0
10.0
10.0
10.0
10.0
10.0
10.0
10.0
10.0
10.0
10.0
10.0
10.0
10.0
10.0
10.0
10.0
10.0
10.0
10.0
10.0
10.0
10.0
10.0
10.0
10.0
10.0
10.0
10.0
10.0
10.0
10.0
10.0
10.0
10.0
10.0
10.0
10.0
10.0
10.0
10.0
10.0
10.0
10.0
10.0
10.0
10.0
10.0
10.0
10.0
10.0
10.0
10.0
10.0
10.0
10.0
10.0
10.0
10.0
10.0
10.0
10.0
10.0
10.0
10.0
10.0
10.0
10.0
10.0
10.0
10.0
10.0
10.0
10.0
10.0
10.0
10.0
10.0
10.0
10.0
10.0
10.0
10.0
10.0
10.0
10.0
10.0
10.0
10.0
10.0
10.0
10.0
10.0
10.0
10.0
10.0
10.0
10.0
10.0
10.0
10.0
10.0
10.0
10.0
10.0
10.0
10.0
10.0
10.0
10.0
10.0
10.0
10.0
10.0
10.0
10.0
10.0
10.0
10.0
10.0
10.0
10.0
10.0
10.0
10.0
10.0
10.0
10.0
10.0
10.0
10.0
10.0
10.0
10.0
10.0
10.0
10.0
10.0
10.0
10.0
10.0
10.0
10.0
10.0
10.0
10.0
10.0
10.0
10.0
10.0
10.0
10.0
10.0
10.0
10.0
10.0
10.0
10.0
10.0
10.0
10.0
10.0
10.0
10.0
10.0
10.0
10.0
10.0
10.0
10.0
10.0
10.0
10.0
10.0
10.0
10.0
10.0
10.0
10.0
10.0
10.0
10.0
10.0
10.0
10.0
10.0
10.0
10.0
10.0
10.0
10.0
10.0
10.0
10.0
10.0
10.0
10.0
10.0
10.0
10.0
10.0
10.0
10.0
10.0
10.0
10.0
10.0
10.0
10.0
10.0
10.0
10.0
10.0
10.0
10.0
10.0
10.0
10.0
10.0
10.0
10.0
10.0
10.0
10.0
10.0
10.0
10.0
10.0
10.0
10.0
10.0
10.0
10.0
10.0
10.0
10.0
10.0
10.0
10.0
10.0
10.0
10.0
10.0
10.0
10.0
10.0
10.0
10.0
10.0
10.0
10.0
10.0
10.0
10.0
10.0
10.0
10.0
10.0
10.0
10.0
10.0
10.0
10.0
10.0
10.0
10.0
10.0
10.0
10.0
10.0
10.0
10.0
10.0
10.0
10.0
10.0
10.0
10.0
10.0
10.0
10.0
10.0
10.0
10.0
10.0
10.0
10.0
10.0
10.0
10.0
10.0
10.0
10.0
10.0
10.0
10.0
10.0
10.0
10.0
10.0
10.0
10.0
10.0
10.0
10.0
10.0
10.0
10.0
10.0
10.0
10.0
10.0
10.0
10.0
10.0
10.0
10.0
10.0
10.0
10.0
10.0
10.0
10.0
10.0
10.0
10.0
10.0
10.0
10.0
10.0
10.0
10.0
10.0
10.0
10.0
10.0
10.0
10.0
10.0
10.0
10.0
10.0
10.0
10.0
10.0
10.0
10.0
10.0
10.0
10.0
10.0
10.0
10.0
10.0
10.0
10.0
10.0
10.0
10.0
10.0
10.0
10.0
10.0
10.0
10.0
10.0
10.0
10.0
10.0
10.0
10.0
10.0
10.0
10.0
10.0
10.0
10.0
10.0
10.0
10.0
10.0
10.0
10.0
10.0
10.0
10.0
10.0
10.0
10.0
10.0
10.0
10.0
10.0
10.0
10.0
10.0
10.0
10.0
10.0
10.0
10.0
10.0
10.0
10.0
10.0
10.0
10.0
10.0
10.0
10.0
10.0
10.0
10.0
10.0
10.0
10.0
10.0
10.0
10.0
10.0
10.0
SCALARS Fcdg_x float 1
LOOKUP_TABLE default
-3.327163554275037e-13
1127.482517629952
1209.7736040665905
1236.0296600223787
1261.6134933804542
2564.1201053050536
2982.684315979014
3235.6628558100156
3403.084811922041
3518.9675581558067
3601.708269062361
3662.1985425904195
3707.4301612505196
-2.190295177058877e-13
922.3398935456551
986.2672427847083
1007.1717499618323
1027.8478954355312
2330.354507360131
2748.9187180340914
3001.897257865093
3169.3192139771177
3285.201960210884
3367.942671117438
3428.4329446454967
3473.664563305596
-2.190295177058877e-13
678.772615213839
724.7467773925083
739.9512487281171
755.0882171996809
2057.5948291242803
2476.159039798241
2729.1375796292423
2896.5595357412676
3012.442281975034
3095.182992881588
3155.6732664096467
3200.904885069746
-3.327163554275037e-13
413.4081985816081
441.105907237011
450.31562737372735
459.5125502314039
1762.0191621560034
2180.583372829964
2433.5619126609654
2600.9838687729907
2716.8666150067565
2799.607325913311
2860.0975994413693
2905.3292181014685
-2.758729365666957e-13
138.59800269481696
147.842638425185
150.92338889319745
154.0036946213746
1456.5103065459743
1875.0745172199345
2128.0530570509363
2295.475013162961
2411.3577593967275
2494.0984703032814
2554.5887438313403
2599.8203624914395
-2.7031016474179954e-13
-2.703101647417996e-14
-1.0812406589672002e-14
-5.406203294836001e-15
0.0
1302.5066119245996
1721.07082259856
1974.0493624295616
2141.4713185415867
2257.354064775353
2340.094775681907
2400.5850492099657
2445.816667870065
-2.474512271362917e-13
-138.59800269481696
-147.842638425185
-150.92338889319745
-154.0036946213746
1148.5029173032249
1567.0671279771855
1820.0456678081869
1987.4676239202122
2103.3503701539785
2186.0910810605324
2246.5813545885912
2291.8129732486905
-1.337643894146757e-13
-413.4081985816081
-441.105907237011
-450.31562737372735
-459.5125502314039
842.9940616931957
1261.558272367156
1514.5368121981578
1681.9587683101827
1797.841514543949
1880.5822254505028
1941.0724989785617
1986.304117638661
-2.758729365666957e-13
-678.772615213839
-724.7467773925083
-739.9512487281171
-755.0882171996809
547.4183947249187
965.9826053988791
1218.9611452298807
1386.3831013419058
1502.265847575672
1585.006558482226
1645.4968320102848
1690.728450670384
-3.327163554275037e-13
-922.3398935456551
-986.2672427847083
-1007.1717499618323
-1027.8478954355312
274.6587164890684
693.2229271630288
946.2014669940304
1113.6234231060555
1229.5061693398218
1312.2468802463757
1372.7371537744345
1417.9687724345338
-1.621860988450797e-13
-1127.482517629952
-1209.7736040665905
-1236.0296600223787
-1261.6134933804542
40.89311854414541
459.45732921810577
712.4358690491074
879.8578251611325
995.7405713948988
1078.4812823014527
1138.9715558295115
1184.2031744896108
-766.5698803106644
1013.3318606240498
1165.8888144378207
1214.4683181387627
1261.6134933804542
2403.6280707399496
2861.0389316976043
3146.258442162979
3337.8925752099594
3471.537879666973
3566.922289546509
3636.6986662863355
3688.4105529758226
-766.5698803106643
828.4112698658594
949.2428096607018
988.7715735116485
1027.8478954355312
2169.8624727950264
2627.2733337526806
2912.492844218056
3104.1269772650367
3237.77228172205
3333.1566916015863
3402.9330683414128
3454.6449550309
-766.5698803106644
593.4857502386153
690.8206938814926
723.0267890480764
755.0882171996809
1897.1027945591763
2354.5136555168306
2639.7331659822057
2831.367299029186
2965.0126034861996
3060.3970133657363
3130.1733901055622
3181.8852767950493
-766.5698803106644
332.5777854705757
408.8285591579256
434.1886309966728
459.5125502314039
1601.5271275908992
2058.937988548553
2344.1574990139284
2535.7916320609093
2669.4369365179227
2764.821346397459
2834.5977231372854
2886.3096098267724
-766.5698803106643
60.12341020030935
116.45672586335968
135.23184293114332
154.0036946213746
1296.01827198087
1753.4291329385242
2038.6486434038993
2230.2827764508797
2363.928080907893
2459.31249078743
2529.088867527256
2580.800754216743
-766.5698803106643
-77.82744782868194
-31.1350438423288
-15.567812322645242
0.0
1142.0145773594954
1599.4254383171497
1884.6449487825246
2076.2790818295052
2209.9243862865187
2305.3087961660553
2375.0851729058813
2426.7970595953684
-766.5698803106644
-216.07316674242702
-178.835531730804
-166.4200368268165
-154.0036946213746
988.0108827381208
1445.4217436957751
1730.6412541611498
1922.2753872081307
2055.920691665144
2151.305101544681
2221.081478284507
2272.793364973994
-766.5698803106644
-491.02908454863257
-472.12612069699804
-465.8202849750944
-459.5125502314039
682.5020271280915
1139.9128880857456
1425.1323985511208
1616.7665315981012
1750.4118360551147
1845.7962459346513
1915.5726226744773
1967.2845093639644
-766.5698803106643
-757.833349238723
-756.2575761467356
-755.6851555316998
-755.0882171996809
386.9263601598145
844.3372211174687
1129.5567315828437
1321.1908646298243
1454.8361690868378
1550.2205789663744
1619.9969557062004
1671.7088423956875
-766.5698803106644
-1004.7715078587127
-1018.9223975924081
-1023.4389605119384
-1027.8478954355312
114.16668192396423
571.5775428816185
856.7970533469934
1048.431186393974
1182.0764908509875
1277.4609007305241
1347.2372774703501
1398.9491641598372
-766.5698803106644
-1217.1060597165733
-1244.7457552467308
-1253.3462988397528
-1261.6134933804542
-119.59891602095877
337.81194493669545
623.0314554020704
814.665588449051
948.3108929060645
1043.6953027856011
1113.4716795254271
1165.1835662149142
-1509.8479227111652
827.1101282357757
1095.2925097998993
1180.3335177226536
1261.6134933804542
2270.4079294439025
2756.154182835696
3070.036795041846
3284.9034715398366
3435.3918980835824
3542.7875049359036
3620.6493653554508
3677.9698058523636
-1509.8479227111652
708.1147630770542
902.0854165928217
965.4219301506068
1027.8478954355312
2036.6423314989795
2522.3885848907726
2836.2711970969226
3051.137873594914
3201.626300138659
3309.021906990981
3386.883767410528
3444.204207907441
-1509.8479227111652
493.7355893319528
651.1998513925475
703.2838151236037
755.0882171996809
1763.8826532631292
2249.6289066549225
2563.5115188610725
2778.3781953590637
2928.866621902809
3036.2622287551303
3114.1240891746775
3171.4445296715903
-1509.8479227111652
242.54063843714897
372.8759431027587
416.2313155445386
459.5125502314039
1468.306986294852
1954.0532396866452
2267.935851892795
2482.8025283907864
2633.2909549345322
2740.6865617868534
2818.5484222064006
2875.8688627033134
-1509.8479227111652
-24.455273639901094
82.6088599415246
118.30930297168214
154.0036946213746
1162.7981306848228
1648.544384076616
1962.4269962827661
2177.2936727807573
2327.7820993245027
2435.177706176824
2513.039566596371
2570.360007093284
-1509.8479227111652
-160.56833920015254
-64.26305376351127
-32.13408060647261
0.0
1008.7944360634482
1494.5406894552414
1808.4233016613914
2023.2899781593828
2173.778404703128
2281.1740115554494
2359.0358719749966
2416.3563124719094
-1509.8479227111652
-297.3957915991449
-211.40088933316878
-182.70643924615337
-154.0036946213746
854.7907414420736
1340.5369948338666
1654.4196070400167
1869.2862835380083
2019.7747100817537