# vtk DataFile Version 3.0
Kart explore — axes cap, volant, gaz ; temps = vit (voir .pvd)
ASCII
DATASET POLYDATA
POINTS 2574 float
-90.0 -45.0 -4.0
-90.0 -45.0 -3.0
-90.0 -45.0 -2.0
-90.0 -45.0 -1.0
-90.0 -45.0 0.0
-90.0 -45.0 10.0
-90.0 -45.0 20.0
-90.0 -45.0 30.0
-90.0 -45.0 40.0
-90.0 -45.0 50.0
-90.0 -45.0 60.0
-90.0 -45.0 70.0
-90.0 -45.0 80.0
-90.0 -35.0 -4.0
-90.0 -35.0 -3.0
-90.0 -35.0 -2.0
-90.0 -35.0 -1.0
-90.0 -35.0 0.0
-90.0 -35.0 10.0
-90.0 -35.0 20.0
-90.0 -35.0 30.0
-90.0 -35.0 40.0
-90.0 -35.0 50.0
-90.0 -35.0 60.0
-90.0 -35.0 70.0
-90.0 -35.0 80.0
-90.0 -25.0 -4.0
-90.0 -25.0 -3.0
-90.0 -25.0 -2.0
-90.0 -25.0 -1.0
-90.0 -25.0 0.0
-90.0 -25.0 10.0
-90.0 -25.0 20.0
-90.0 -25.0 30.0
-90.0 -25.0 40.0
-90.0 -25.0 50.0
-90.0 -25.0 60.0
-90.0 -25.0 70.0
-90.0 -25.0 80.0
-90.0 -15.0 -4.0
-90.0 -15.0 -3.0
-90.0 -15.0 -2.0
-90.0 -15.0 -1.0
-90.0 -15.0 0.0
-90.0 -15.0 10.0
-90.0 -15.0 20.0
-90.0 -15.0 30.0
-90.0 -15.0 40.0
-90.0 -15.0 50.0
-90.0 -15.0 60.0
-90.0 -15.0 70.0
-90.0 -15.0 80.0
-90.0 -5.0 -4.0
-90.0 -5.0 -3.0
-90.0 -5.0 -2.0
-90.0 -5.0 -1.0
-90.0 -5.0 0.0
-90.0 -5.0 10.0
-90.0 -5.0 20.0
-90.0 -5.0 30.0
-90.0 -5.0 40.0
-90.0 -5.0 50.0
-90.0 -5.0 60.0
-90.0 -5.0 70.0
-90.0 -5.0 80.0
-90.0 0.0 -4.0
-90.0 0.0 -3.0
-90.0 0.0 -2.0
-90.0 0.0 -1.0
-90.0 0.0 0.0
-90.0 0.0 10.0
-90.0 0.0 20.0
-90.0 0.0 30.0
-90.0 0.0 40.0
-90.0 0.0 50.0
-90.0 0.0 60.0
-90.0 0.0 70.0
-90.0 0.0 80.0
-90.0 5.0 -4.0
-90.0 5.0 -3.0
-90.0 5.0 -2.0
-90.0 5.0 -1.0
-90.0 5.0 0.0
-90.0 5.0 10.0
-90.0 5.0 20.0
-90.0 5.0 30.0
-90.0 5.0 40.0
-90.0 5.0 50.0
-90.0 5.0 60.0
-90.0 5.0 70.0
-90.0 5.0 80.0
-90.0 15.0 -4.0
-90.0 15.0 -3.0
-90.0 15.0 -2.0
-90.0 15.0 -1.0
-90.0 15.0 0.0
-90.0 15.0 10.0
-90.0 15.0 20.0
-90.0 15.0 30.0
-90.0 15.0 40.0
-90.0 15.0 50.0
-90.0 15.0 60.0
-90.0 15.0 70.0
-90.0 15.0 80.0
-90.0 25.0 -4.0
-90.0 25.0 -3.0
-90.0 25.0 -2.0
-90.0 25.0 -1.0
-90.0 25.0 0.0
-90.0 25.0 10.0
-90.0 25.0 20.0
-90.0 25.0 30.0
-90.0 25.0 40.0
-90.0 25.0 50.0
-90.0 25.0 60.0
-90.0 25.0 70.0
-90.0 25.0 80.0
-90.0 35.0 -4.0
-90.0 35.0 -3.0
-90.0 35.0 -2.0
-90.0 35.0 -1.0
-90.0 35.0 0.0
-90.0 35.0 10.0
-90.0 35.0 20.0
-90.0 35.0 30.0
-90.0 35.0 40.0
-90.0 35.0 50.0
-90.0 35.0 60.0
-90.0 35.0 70.0
-90.0 35.0 80.0
-90.0 45.0 -4.0
-90.0 45.0 -3.0
-90.0 45.0 -2.0
-90.0 45.0 -1.0
-90.0 45.0 0.0
-90.0 45.0 10.0
-90.0 45.0 20.0
-90.0 45.0 30.0
-90.0 45.0 40.0
-90.0 45.0 50.0
-90.0 45.0 60.0
-90.0 45.0 70.0
-90.0 45.0 80.0
-80.0 -45.0 -4.0
-80.0 -45.0 -3.0
-80.0 -45.0 -2.0
-80.0 -45.0 -1.0
-80.0 -45.0 0.0
-80.0 -45.0 10.0
-80.0 -45.0 20.0
-80.0 -45.0 30.0
-80.0 -45.0 40.0
-80.0 -45.0 50.0
-80.0 -45.0 60.0
-80.0 -45.0 70.0
-80.0 -45.0 80.0
-80.0 -35.0 -4.0
-80.0 -35.0 -3.0
-80.0 -35.0 -2.0
-80.0 -35.0 -1.0
-80.0 -35.0 0.0
-80.0 -35.0 10.0
-80.0 -35.0 20.0
-80.0 -35.0 30.0
-80.0 -35.0 40.0
-80.0 -35.0 50.0
-80.0 -35.0 60.0
-80.0 -35.0 70.0
-80.0 -35.0 80.0
-80.0 -25.0 -4.0
-80.0 -25.0 -3.0
-80.0 -25.0 -2.0
-80.0 -25.0 -1.0
-80.0 -25.0 0.0
-80.0 -25.0 10.0
-80.0 -25.0 20.0
-80.0 -25.0 30.0
-80.0 -25.0 40.0
-80.0 -25.0 50.0
-80.0 -25.0 60.0
-80.0 -25.0 70.0
-80.0 -25.0 80.0
-80.0 -15.0 -4.0
-80.0 -15.0 -3.0
-80.0 -15.0 -2.0
-80.0 -15.0 -1.0
-80.0 -15.0 0.0
-80.0 -15.0 10.0
-80.0 -15.0 20.0
-80.0 -15.0 30.0
-80.0 -15.0 40.0
-80.0 -15.0 50.0
-80.0 -15.0 60.0
-80.0 -15.0 70.0
-80.0 -15.0 80.0
-80.0 -5.0 -4.0
-80.0 -5.0 -3.0
-80.0 -5.0 -2.0
-80.0 -5.0 -1.0
-80.0 -5.0 0.0
-80.0 -5.0 10.0
-80.0 -5.0 20.0
-80.0 -5.0 30.0
-80.0 -5.0 40.0
-80.0 -5.0 50.0
-80.0 -5.0 60.0
-80.0 -5.0 70.0
-80.0 -5.0 80.0
-80.0 0.0 -4.0
-80.0 0.0 -3.0
-80.0 0.0 -2.0
-80.0 0.0 -1.0
-80.0 0.0 0.0
-80.0 0.0 10.0
-80.0 0.0 20.0
-80.0 0.0 30.0
-80.0 0.0 40.0
-80.0 0.0 50.0
-80.0 0.0 60.0
-80.0 0.0 70.0
-80.0 0.0 80.0
-80.0 5.0 -4.0
-80.0 5.0 -3.0
-80.0 5.0 -2.0
-80.0 5.0 -1.0
-80.0 5.0 0.0
-80.0 5.0 10.0
-80.0 5.0 20.0
-80.0 5.0 30.0
-80.0 5.0 40.0
-80.0 5.0 50.0
-80.0 5.0 60.0
-80.0 5.0 70.0
-80.0 5.0 80.0
-80.0 15.0 -4.0
-80.0 15.0 -3.0
-80.0 15.0 -2.0
-80.0 15.0 -1.0
-80.0 15.0 0.0
-80.0 15.0 10.0
-80.0 15.0 20.0
-80.0 15.0 30.0
-80.0 15.0 40.0
-80.0 15.0 50.0
-80.0 15.0 60.0
-80.0 15.0 70.0
-80.0 15.0 80.0
-80.0 25.0 -4.0
-80.0 25.0 -3.0
-80.0 25.0 -2.0
-80.0 25.0 -1.0
-80.0 25.0 0.0
-80.0 25.0 10.0
-80.0 25.0 20.0
-80.0 25.0 30.0
-80.0 25.0 40.0
-80.0 25.0 50.0
-80.0 25.0 60.0
-80.0 25.0 70.0
-80.0 25.0 80.0
-80.0 35.0 -4.0
-80.0 35.0 -3.0
-80.0 35.0 -2.0
-80.0 35.0 -1.0
-80.0 35.0 0.0
-80.0 35.0 10.0
-80.0 35.0 20.0
-80.0 35.0 30.0
-80.0 35.0 40.0
-80.0 35.0 50.0
-80.0 35.0 60.0
-80.0 35.0 70.0
-80.0 35.0 80.0
-80.0 45.0 -4.0
-80.0 45.0 -3.0
-80.0 45.0 -2.0
-80.0 45.0 -1.0
-80.0 45.0 0.0
-80.0 45.0 10.0
-80.0 45.0 20.0
-80.0 45.0 30.0
-80.0 45.0 40.0
-80.0 45.0 50.0
-80.0 45.0 60.0
-80.0 45.0 70.0
-80.0 45.0 80.0
-70.0 -45.0 -4.0
-70.0 -45.0 -3.0
-70.0 -45.0 -2.0
-70.0 -45.0 -1.0
-70.0 -45.0 0.0
-70.0 -45.0 10.0
-70.0 -45.0 20.0
-70.0 -45.0 30.0
-70.0 -45.0 40.0
-70.0 -45.0 50.0
-70.0 -45.0 60.0
-70.0 -45.0 70.0
-70.0 -45.0 80.0
-70.0 -35.0 -4.0
-70.0 -35.0 -3.0
-70.0 -35.0 -2.0
-70.0 -35.0 -1.0
-70.0 -35.0 0.0
-70.0 -35.0 10.0
-70.0 -35.0 20.0
-70.0 -35.0 30.0
-70.0 -35.0 40.0
-70.0 -35.0 50.0
-70.0 -35.0 60.0
-70.0 -35.0 70.0
-70.0 -35.0 80.0
-70.0 -25.0 -4.0
-70.0 -25.0 -3.0
-70.0 -25.0 -2.0
-70.0 -25.0 -1.0
-70.0 -25.0 0.0
-70.0 -25.0 10.0
-70.0 -25.0 20.0
-70.0 -25.0 30.0
-70.0 -25.0 40.0
-70.0 -25.0 50.0
-70.0 -25.0 60.0
-70.0 -25.0 70.0
-70.0 -25.0 80.0
-70.0 -15.0 -4.0
-70.0 -15.0 -3.0
-70.0 -15.0 -2.0
-70.0 -15.0 -1.0
-70.0 -15.0 0.0
-70.0 -15.0 10.0
-70.0 -15.0 20.0
-70.0 -15.0 30.0
-70.0 -15.0 40.0
-70.0 -15.0 50.0
-70.0 -15.0 60.0
-70.0 -15.0 70.0
-70.0 -15.0 80.0
-70.0 -5.0 -4.0
-70.0 -5.0 -3.0
-70.0 -5.0 -2.0
-70.0 -5.0 -1.0
-70.0 -5.0 0.0
-70.0 -5.0 10.0
-70.0 -5.0 20.0
-70.0 -5.0 30.0
-70.0 -5.0 40.0
-70.0 -5.0 50.0
-70.0 -5.0 60.0
-70.0 -5.0 70.0
-70.0 -5.0 80.0
-70.0 0.0 -4.0
-70.0 0.0 -3.0
-70.0 0.0 -2.0
-70.0 0.0 -1.0
-70.0 0.0 0.0
-70.0 0.0 10.0
-70.0 0.0 20.0
-70.0 0.0 30.0
-70.0 0.0 40.0
-70.0 0.0 50.0
-70.0 0.0 60.0
-70.0 0.0 70.0
-70.0 0.0 80.0
-70.0 5.0 -4.0
-70.0 5.0 -3.0
-70.0 5.0 -2.0
-70.0 5.0 -1.0
-70.0 5.0 0.0
-70.0 5.0 10.0
-70.0 5.0 20.0
-70.0 5.0 30.0
-70.0 5.0 40.0
-70.0 5.0 50.0
-70.0 5.0 60.0
-70.0 5.0 70.0
-70.0 5.0 80.0
-70.0 15.0 -4.0
-70.0 15.0 -3.0
-70.0 15.0 -2.0
-70.0 15.0 -1.0
-70.0 15.0 0.0
-70.0 15.0 10.0
-70.0 15.0 20.0
-70.0 15.0 30.0
-70.0 15.0 40.0
-70.0 15.0 50.0
-70.0 15.0 60.0
-70.0 15.0 70.0
-70.0 15.0 80.0
-70.0 25.0 -4.0
-70.0 25.0 -3.0
-70.0 25.0 -2.0
-70.0 25.0 -1.0
-70.0 25.0 0.0
-70.0 25.0 10.0
-70.0 25.0 20.0
-70.0 25.0 30.0
-70.0 25.0 40.0
-70.0 25.0 50.0
-70.0 25.0 60.0
-70.0 25.0 70.0
-70.0 25.0 80.0
-70.0 35.0 -4.0
-70.0 35.0 -3.0
-70.0 35.0 -2.0
-70.0 35.0 -1.0
-70.0 35.0 0.0
-70.0 35.0 10.0
-70.0 35.0 20.0
-70.0 35.0 30.0
-70.0 35.0 40.0
-70.0 35.0 50.0
-70.0 35.0 60.0
-70.0 35.0 70.0
-70.0 35.0 80.0
-70.0 45.0 -4.0
-70.0 45.0 -3.0
-70.0 45.0 -2.0
-70.0 45.0 -1.0
-70.0 45.0 0.0
-70.0 45.0 10.0
-70.0 45.0 20.0
-70.0 45.0 30.0
-70.0 45.0 40.0
-70.0 45.0 50.0
-70.0 45.0 60.0
-70.0 45.0 70.0
-70.0 45.0 80.0
-59.99999999999999 -45.0 -4.0
-59.99999999999999 -45.0 -3.0
-59.99999999999999 -45.0 -2.0
-59.99999999999999 -45.0 -1.0
-59.99999999999999 -45.0 0.0
-59.99999999999999 -45.0 10.0
-59.99999999999999 -45.0 20.0
-59.99999999999999 -45.0 30.0
-59.99999999999999 -45.0 40.0
-59.99999999999999 -45.0 50.0
-59.99999999999999 -45.0 60.0
-59.99999999999999 -45.0 70.0
-59.99999999999999 -45.0 80.0
-59.99999999999999 -35.0 -4.0
-59.99999999999999 -35.0 -3.0
-59.99999999999999 -35.0 -2.0
-59.99999999999999 -35.0 -1.0
-59.99999999999999 -35.0 0.0
-59.99999999999999 -35.0 10.0
-59.99999999999999 -35.0 20.0
-59.99999999999999 -35.0 30.0
-59.99999999999999 -35.0 40.0
-59.99999999999999 -35.0 50.0
-59.99999999999999 -35.0 60.0
-59.99999999999999 -35.0 70.0
-59.99999999999999 -35.0 80.0
-59.99999999999999 -25.0 -4.0
-59.99999999999999 -25.0 -3.0
-59.99999999999999 -25.0 -2.0
-59.99999999999999 -25.0 -1.0
-59.99999999999999 -25.0 0.0
-59.99999999999999 -25.0 10.0
-59.99999999999999 -25.0 20.0
-59.99999999999999 -25.0 30.0
-59.99999999999999 -25.0 40.0
-59.99999999999999 -25.0 50.0
-59.99999999999999 -25.0 60.0
-59.99999999999999 -25.0 70.0
-59.99999999999999 -25.0 80.0
-59.99999999999999 -15.0 -4.0
-59.99999999999999 -15.0 -3.0
-59.99999999999999 -15.0 -2.0
-59.99999999999999 -15.0 -1.0
-59.99999999999999 -15.0 0.0
-59.99999999999999 -15.0 10.0
-59.99999999999999 -15.0 20.0
-59.99999999999999 -15.0 30.0
-59.99999999999999 -15.0 40.0
-59.99999999999999 -15.0 50.0
-59.99999999999999 -15.0 60.0
-59.99999999999999 -15.0 70.0
-59.99999999999999 -15.0 80.0
-59.99999999999999 -5.0 -4.0
-59.99999999999999 -5.0 -3.0
-59.99999999999999 -5.0 -2.0
-59.99999999999999 -5.0 -1.0
-59.99999999999999 -5.0 0.0
-59.99999999999999 -5.0 10.0
-59.99999999999999 -5.0 20.0
-59.99999999999999 -5.0 30.0
-59.99999999999999 -5.0 40.0
-59.99999999999999 -5.0 50.0
-59.99999999999999 -5.0 60.0
-59.99999999999999 -5.0 70.0
-59.99999999999999 -5.0 80.0
-59.99999999999999 0.0 -4.0
-59.99999999999999 0.0 -3.0
-59.99999999999999 0.0 -2.0
-59.99999999999999 0.0 -1.0
-59.99999999999999 0.0 0.0
-59.99999999999999 0.0 10.0
-59.99999999999999 0.0 20.0
-59.99999999999999 0.0 30.0
-59.99999999999999 0.0 40.0
-59.99999999999999 0.0 50.0
-59.99999999999999 0.0 60.0
-59.99999999999999 0.0 70.0
-59.99999999999999 0.0 80.0
-59.99999999999999 5.0 -4.0
-59.99999999999999 5.0 -3.0
-59.99999999999999 5.0 -2.0
-59.99999999999999 5.0 -1.0
-59.99999999999999 5.0 0.0
-59.99999999999999 5.0 10.0
-59.99999999999999 5.0 20.0
-59.99999999999999 5.0 30.0
-59.99999999999999 5.0 40.0
-59.99999999999999 5.0 50.0
-59.99999999999999 5.0 60.0
-59.99999999999999 5.0 70.0
-59.99999999999999 5.0 80.0
-59.99999999999999 15.0 -4.0
-59.99999999999999 15.0 -3.0
-59.99999999999999 15.0 -2.0
-59.99999999999999 15.0 -1.0
-59.99999999999999 15.0 0.0
-59.99999999999999 15.0 10.0
-59.99999999999999 15.0 20.0
-59.99999999999999 15.0 30.0
-59.99999999999999 15.0 40.0
-59.99999999999999 15.0 50.0
[...]
POINT_DATA 2574
SCALARS vitesse float 1
LOOKUP_TABLE default
45.0
45.0
45.0
45.0
45.0
45.0
45.0
45.0
45.0
45.0
45.0
45.0
45.0
45.0
45.0
45.0
45.0
45.0
45.0
45.0
45.0
45.0
45.0
45.0
45.0
45.0
45.0
45.0
45.0
45.0
45.0
45.0
45.0
45.0
45.0
45.0
45.0
45.0
45.0
45.0
45.0
45.0
45.0
45.0
45.0
45.0
45.0
45.0
45.0
45.0
45.0
45.0
45.0
45.0
45.0
45.0
45.0
45.0
45.0
45.0
45.0
45.0
45.0
45.0
45.0
45.0
45.0
45.0
45.0
45.0
45.0
45.0
45.0
45.0
45.0
45.0
45.0
45.0
45.0
45.0
45.0
45.0
45.0
45.0
45.0
45.0
45.0
45.0
45.0
45.0
45.0
45.0
45.0
45.0
45.0
45.0
45.0
45.0
45.0
45.0
45.0
45.0
45.0
45.0
45.0
45.0
45.0
45.0
45.0
45.0
45.0
45.0
45.0
45.0
45.0
45.0
45.0
45.0
45.0
45.0
45.0
45.0
45.0
45.0
45.0
45.0
45.0
45.0
45.0
45.0
45.0
45.0
45.0
45.0
45.0
45.0
45.0
45.0
45.0
45.0
45.0
45.0
45.0
45.0
45.0
45.0
45.0
45.0
45.0
45.0
45.0
45.0
45.0
45.0
45.0
45.0
45.0
45.0
45.0
45.0
45.0
45.0
45.0
45.0
45.0
45.0
45.0
45.0
45.0
45.0
45.0
45.0
45.0
45.0
45.0
45.0
45.0
45.0
45.0
45.0
45.0
45.0
45.0
45.0
45.0
45.0
45.0
45.0
45.0
45.0
45.0
45.0
45.0
45.0
45.0
45.0
45.0
45.0
45.0
45.0
45.0
45.0
45.0
45.0
45.0
45.0
45.0
45.0
45.0
45.0
45.0
45.0
45.0
45.0
45.0
45.0
45.0
45.0
45.0
45.0
45.0
45.0
45.0
45.0
45.0
45.0
45.0
45.0
45.0
45.0
45.0
45.0
45.0
45.0
45.0
45.0
45.0
45.0
45.0
45.0
45.0
45.0
45.0
45.0
45.0
45.0
45.0
45.0
45.0
45.0
45.0
45.0
45.0
45.0
45.0
45.0
45.0
45.0
45.0
45.0
45.0
45.0
45.0
45.0
45.0
45.0
45.0
45.0
45.0
45.0
45.0
45.0
45.0
45.0
45.0
45.0
45.0
45.0
45.0
45.0
45.0
45.0
45.0
45.0
45.0
45.0
45.0
45.0
45.0
45.0
45.0
45.0
45.0
45.0
45.0
45.0
45.0
45.0
45.0
45.0
45.0
45.0
45.0
45.0
45.0
45.0
45.0
45.0
45.0
45.0
45.0
45.0
45.0
45.0
45.0
45.0
45.0
45.0
45.0
45.0
45.0
45.0
45.0
45.0
45.0
45.0
45.0
45.0
45.0
45.0
45.0
45.0
45.0
45.0
45.0
45.0
45.0
45.0
45.0
45.0
45.0
45.0
45.0
45.0
45.0
45.0
45.0
45.0
45.0
45.0
45.0
45.0
45.0
45.0
45.0
45.0
45.0
45.0
45.0
45.0
45.0
45.0
45.0
45.0
45.0
45.0
45.0
45.0
45.0
45.0
45.0
45.0
45.0
45.0
45.0
45.0
45.0
45.0
45.0
45.0
45.0
45.0
45.0
45.0
45.0
45.0
45.0
45.0
45.0
45.0
45.0
45.0
45.0
45.0
45.0
45.0
45.0
45.0
45.0
45.0
45.0
45.0
45.0
45.0
45.0
45.0
45.0
45.0
45.0
45.0
45.0
45.0
45.0
45.0
45.0
45.0
45.0
45.0
45.0
45.0
45.0
45.0
45.0
45.0
45.0
45.0
45.0
45.0
45.0
45.0
45.0
45.0
45.0
45.0
45.0
45.0
45.0
45.0
45.0
45.0
45.0
45.0
45.0
45.0
45.0
45.0
45.0
45.0
45.0
45.0
45.0
45.0
45.0
45.0
45.0
45.0
45.0
45.0
45.0
45.0
45.0
45.0
45.0
45.0
45.0
45.0
45.0
45.0
45.0
45.0
45.0
45.0
45.0
45.0
45.0
45.0
45.0
45.0
45.0
45.0
45.0
45.0
45.0
45.0
45.0
45.0
45.0
45.0
45.0
45.0
45.0
45.0
45.0
45.0
45.0
45.0
45.0
45.0
45.0
45.0
45.0
45.0
45.0
45.0
45.0
45.0
45.0
45.0
45.0
45.0
45.0
45.0
45.0
45.0
45.0
45.0
45.0
45.0
45.0
45.0
45.0
45.0
45.0
45.0
45.0
45.0
45.0
45.0
45.0
45.0
45.0
45.0
45.0
45.0
45.0
45.0
45.0
45.0
45.0
45.0
45.0
45.0
45.0
45.0
45.0
45.0
45.0
45.0
45.0
45.0
45.0
45.0
45.0
45.0
45.0
45.0
45.0
45.0
45.0
45.0
45.0
45.0
45.0
45.0
45.0
45.0
45.0
45.0
45.0
45.0
45.0
45.0
45.0
45.0
45.0
45.0
45.0
45.0
45.0
45.0
45.0
45.0
45.0
45.0
45.0
45.0
45.0
45.0
45.0
45.0
45.0
45.0
45.0
45.0
45.0
45.0
45.0
45.0
45.0
45.0
45.0
45.0
45.0
45.0
45.0
45.0
45.0
45.0
45.0
45.0
45.0
45.0
45.0
45.0
45.0
45.0
45.0
45.0
45.0
45.0
45.0
45.0
45.0
45.0
45.0
45.0
45.0
45.0
45.0
45.0
45.0
45.0
45.0
45.0
45.0
45.0
45.0
45.0
45.0
45.0
45.0
45.0
45.0
45.0
45.0
45.0
45.0
45.0
45.0
45.0
45.0
45.0
45.0
45.0
45.0
45.0
45.0
45.0
45.0
45.0
45.0
45.0
45.0
45.0
45.0
45.0
45.0
45.0
45.0
45.0
45.0
45.0
45.0
45.0
45.0
45.0
45.0
45.0
45.0
45.0
45.0
45.0
45.0
45.0
45.0
45.0
45.0
45.0
45.0
45.0
45.0
45.0
45.0
45.0
45.0
45.0
45.0
45.0
45.0
45.0
45.0
45.0
45.0
45.0
45.0
45.0
45.0
45.0
45.0
45.0
45.0
45.0
45.0
45.0
45.0
45.0
45.0
45.0
45.0
45.0
45.0
45.0
45.0
45.0
45.0
45.0
45.0
45.0
45.0
45.0
45.0
45.0
45.0
45.0
45.0
45.0
45.0
45.0
45.0
45.0
45.0
45.0
45.0
45.0
45.0
45.0
45.0
45.0
45.0
45.0
45.0
45.0
45.0
45.0
45.0
45.0
45.0
45.0
45.0
45.0
45.0
45.0
45.0
45.0
45.0
45.0
45.0
45.0
45.0
45.0
45.0
45.0
45.0
45.0
45.0
45.0
45.0
45.0
45.0
45.0
45.0
45.0
45.0
45.0
45.0
45.0
45.0
45.0
45.0
45.0
45.0
45.0
45.0
45.0
45.0
45.0
45.0
45.0
45.0
45.0
45.0
45.0
45.0
45.0
45.0
45.0
45.0
45.0
45.0
45.0
45.0
45.0
45.0
45.0
45.0
45.0
45.0
45.0
45.0
45.0
45.0
45.0
45.0
45.0
45.0
45.0
45.0
45.0
45.0
45.0
45.0
45.0
45.0
45.0
45.0
45.0
45.0
45.0
45.0
45.0
45.0
45.0
45.0
45.0
45.0
45.0
45.0
45.0
45.0
45.0
45.0
45.0
45.0
45.0
45.0
45.0
45.0
45.0
45.0
45.0
45.0
45.0
45.0
45.0
45.0
45.0
45.0
45.0
45.0
45.0
45.0
45.0
45.0
45.0
45.0
45.0
45.0
45.0
45.0
45.0
45.0
45.0
45.0
45.0
45.0
45.0
45.0
45.0
45.0
45.0
45.0
45.0
45.0
45.0
45.0
45.0
45.0
45.0
45.0
45.0
45.0
45.0
45.0
45.0
45.0
45.0
45.0
45.0
45.0
45.0
45.0
45.0
45.0
45.0
45.0
45.0
45.0
45.0
45.0
45.0
45.0
45.0
45.0
45.0
45.0
45.0
45.0
45.0
45.0
45.0
45.0
45.0
45.0
45.0
45.0
45.0
45.0
45.0
45.0
45.0
45.0
45.0
45.0
45.0
45.0
45.0
45.0
45.0
45.0
45.0
45.0
45.0
45.0
45.0
45.0
45.0
45.0
45.0
45.0
45.0
45.0
45.0
45.0
45.0
45.0
45.0
45.0
45.0
45.0
45.0
45.0
45.0
45.0
45.0
45.0
45.0
45.0
45.0
45.0
45.0
45.0
45.0
45.0
45.0
45.0
45.0
45.0
45.0
45.0
45.0
45.0
45.0
45.0
45.0
45.0
45.0
45.0
45.0
45.0
45.0
45.0
45.0
45.0
45.0
45.0
45.0
45.0
45.0
45.0
45.0
45.0
45.0
45.0
45.0
45.0
45.0
45.0
45.0
45.0
45.0
45.0
45.0
45.0
45.0
45.0
45.0
45.0
45.0
45.0
45.0
45.0
45.0
45.0
45.0
45.0
45.0
45.0
45.0
45.0
45.0
45.0
45.0
45.0
45.0
45.0
45.0
45.0
45.0
45.0
45.0
45.0
45.0
45.0
45.0
45.0
45.0
45.0
45.0
45.0
45.0
45.0
45.0
45.0
45.0
45.0
45.0
45.0
45.0
45.0
45.0
45.0
45.0
45.0
45.0
45.0
45.0
45.0
45.0
45.0
45.0
45.0
45.0
45.0
45.0
45.0
45.0
45.0
45.0
45.0
45.0
45.0
45.0
45.0
45.0
45.0
45.0
45.0
45.0
45.0
45.0
45.0
45.0
45.0
45.0
45.0
45.0
45.0
45.0
45.0
45.0
45.0
45.0
45.0
45.0
45.0
45.0
45.0
45.0
45.0
45.0
45.0
45.0
45.0
45.0
45.0
45.0
45.0
45.0
45.0
45.0
45.0
45.0
45.0
45.0
45.0
45.0
45.0
45.0
45.0
45.0
45.0
45.0
45.0
45.0
45.0
45.0
45.0
45.0
45.0
45.0
45.0
45.0
45.0
45.0
45.0
45.0
45.0
45.0
45.0
45.0
45.0
45.0
45.0
45.0
45.0
45.0
45.0
45.0
45.0
45.0
45.0
45.0
45.0
45.0
45.0
45.0
45.0
45.0
45.0
45.0
45.0
45.0
45.0
45.0
45.0
45.0
45.0
45.0
45.0
45.0
45.0
45.0
45.0
45.0
45.0
45.0
45.0
45.0
45.0
45.0
45.0
45.0
45.0
45.0
45.0
45.0
45.0
45.0
45.0
45.0
45.0
45.0
45.0
45.0
45.0
45.0
45.0
45.0
45.0
45.0
45.0
45.0
45.0
45.0
45.0
45.0
45.0
45.0
45.0
45.0
45.0
45.0
45.0
45.0
45.0
45.0
45.0
45.0
45.0
45.0
45.0
45.0
45.0
45.0
45.0
45.0
45.0
45.0
45.0
45.0
45.0
45.0
45.0
45.0
45.0
45.0
45.0
45.0
45.0
45.0
45.0
45.0
45.0
45.0
45.0
45.0
45.0
45.0
45.0
45.0
45.0
45.0
45.0
45.0
45.0
45.0
45.0
45.0
45.0
45.0
45.0
45.0
45.0
45.0
45.0
45.0
45.0
45.0
45.0
45.0
45.0
45.0
45.0
45.0
45.0
45.0
45.0
45.0
45.0
45.0
45.0
45.0
45.0
45.0
45.0
45.0
45.0
45.0
45.0
45.0
45.0
45.0
45.0
45.0
45.0
45.0
45.0
45.0
45.0
45.0
45.0
45.0
45.0
45.0
45.0
45.0
45.0
45.0
45.0
45.0
45.0
45.0
45.0
45.0
45.0
45.0
45.0
45.0
45.0
45.0
45.0
45.0
45.0
45.0
45.0
45.0
45.0
45.0
45.0
45.0
45.0
45.0
45.0
45.0
45.0
45.0
45.0
45.0
45.0
45.0
45.0
45.0
45.0
45.0
45.0
45.0
45.0
45.0
45.0
45.0
45.0
45.0
45.0
45.0
45.0
45.0
45.0
45.0
45.0
45.0
45.0
45.0
45.0
45.0
45.0
45.0
45.0
45.0
45.0
45.0
45.0
45.0
45.0
45.0
45.0
45.0
45.0
45.0
45.0
45.0
45.0
45.0
45.0
45.0
45.0
45.0
45.0
45.0
45.0
45.0
45.0
45.0
45.0
45.0
45.0
45.0
45.0
45.0
45.0
45.0
45.0
45.0
45.0
45.0
45.0
45.0
45.0
45.0
45.0
45.0
45.0
45.0
45.0
45.0
45.0
45.0
45.0
45.0
45.0
45.0
45.0
45.0
45.0
45.0
45.0
45.0
45.0
45.0
45.0
45.0
45.0
45.0
45.0
45.0
45.0
45.0
45.0
45.0
45.0
45.0
45.0
45.0
45.0
45.0
45.0
45.0
45.0
45.0
45.0
45.0
45.0
45.0
45.0
45.0
45.0
45.0
45.0
45.0
45.0
45.0
45.0
45.0
45.0
45.0
45.0
45.0
45.0
45.0
45.0
45.0
45.0
45.0
45.0
45.0
45.0
45.0
45.0
45.0
45.0
45.0
45.0
45.0
45.0
45.0
45.0
45.0
45.0
45.0
45.0
45.0
45.0
45.0
45.0
45.0
45.0
45.0
45.0
45.0
45.0
45.0
45.0
45.0
45.0
45.0
45.0
45.0
45.0
45.0
45.0
45.0
45.0
45.0
45.0
45.0
45.0
45.0
45.0
45.0
45.0
45.0
45.0
45.0
45.0
45.0
45.0
45.0
45.0
45.0
45.0
45.0
45.0
45.0
45.0
45.0
45.0
45.0
45.0
45.0
45.0
45.0
45.0
45.0
45.0
45.0
45.0
45.0
45.0
45.0
45.0
45.0
45.0
45.0
45.0
45.0
45.0
45.0
45.0
45.0
45.0
45.0
45.0
45.0
45.0
45.0
45.0
45.0
45.0
45.0
45.0
45.0
45.0
45.0
45.0
45.0
45.0
45.0
45.0
45.0
45.0
45.0
45.0
45.0
45.0
45.0
45.0
45.0
45.0
45.0
45.0
45.0
45.0
45.0
45.0
45.0
45.0
45.0
45.0
45.0
45.0
45.0
45.0
45.0
45.0
45.0
45.0
45.0
45.0
45.0
45.0
45.0
45.0
45.0
45.0
45.0
45.0
45.0
45.0
45.0
45.0
45.0
45.0
45.0
45.0
45.0
45.0
45.0
45.0
45.0
45.0
45.0
45.0
45.0
45.0
45.0
45.0
45.0
45.0
45.0
45.0
45.0
45.0
45.0
45.0
45.0
45.0
45.0
45.0
45.0
45.0
45.0
45.0
45.0
45.0
45.0
45.0
45.0
45.0
45.0
45.0
45.0
45.0
45.0
45.0
45.0
45.0
45.0
45.0
45.0
45.0
45.0
45.0
45.0
45.0
45.0
45.0
45.0
45.0
45.0
45.0
45.0
45.0
45.0
45.0
45.0
45.0
45.0
45.0
45.0
45.0
45.0
45.0
45.0
45.0
45.0
45.0
45.0
45.0
45.0
45.0
45.0
45.0
45.0
45.0
45.0
45.0
45.0
45.0
45.0
45.0
45.0
45.0
45.0
45.0
45.0
45.0
45.0
45.0
45.0
45.0
45.0
45.0
45.0
45.0
45.0
45.0
45.0
45.0
45.0
45.0
45.0
45.0
45.0
45.0
45.0
45.0
45.0
45.0
45.0
45.0
45.0
45.0
45.0
45.0
45.0
45.0
45.0
45.0
45.0
45.0
45.0
45.0
45.0
45.0
45.0
45.0
45.0
45.0
45.0
45.0
45.0
45.0
45.0
45.0
45.0
45.0
45.0
45.0
45.0
45.0
45.0
45.0
45.0
45.0
45.0
45.0
45.0
45.0
45.0
45.0
45.0
45.0
45.0
45.0
45.0
45.0
45.0
45.0
45.0
45.0
45.0
45.0
45.0
45.0
45.0
45.0
45.0
45.0
45.0
45.0
45.0
45.0
45.0
45.0
45.0
45.0
45.0
45.0
45.0
45.0
45.0
45.0
45.0
45.0
45.0
45.0
45.0
45.0
45.0
45.0
45.0
45.0
45.0
45.0
45.0
45.0
45.0
45.0
45.0
45.0
45.0
45.0
45.0
45.0
45.0
45.0
45.0
45.0
45.0
45.0
45.0
45.0
45.0
45.0
45.0
45.0
45.0
45.0
45.0
45.0
45.0
45.0
45.0
45.0
45.0
45.0
45.0
45.0
45.0
45.0
45.0
45.0
45.0
45.0
45.0
45.0
45.0
45.0
45.0
45.0
45.0
45.0
45.0
45.0
45.0
45.0
45.0
45.0
45.0
45.0
45.0
45.0
45.0
45.0
45.0
45.0
45.0
45.0
45.0
45.0
45.0
45.0
45.0
45.0
45.0
45.0
45.0
45.0
45.0
45.0
45.0
45.0
45.0
45.0
45.0
45.0
45.0
45.0
45.0
45.0
45.0
45.0
45.0
45.0
45.0
45.0
45.0
45.0
45.0
45.0
45.0
45.0
45.0
45.0
45.0
45.0
45.0
45.0
45.0
45.0
45.0
45.0
45.0
45.0
45.0
45.0
45.0
45.0
45.0
45.0
45.0
45.0
45.0
45.0
45.0
45.0
45.0
45.0
45.0
45.0
45.0
45.0
45.0
45.0
45.0
45.0
45.0
45.0
45.0
45.0
45.0
45.0
45.0
45.0
45.0
45.0
45.0
45.0
45.0
45.0
45.0
45.0
45.0
45.0
45.0
45.0
45.0
45.0
45.0
45.0
45.0
45.0
45.0
45.0
45.0
45.0
45.0
45.0
45.0
45.0
45.0
45.0
45.0
45.0
45.0
45.0
45.0
45.0
45.0
45.0
45.0
45.0
45.0
45.0
45.0
45.0
45.0
45.0
45.0
45.0
45.0
45.0
45.0
45.0
45.0
45.0
45.0
45.0
45.0
45.0
45.0
45.0
45.0
45.0
45.0
45.0
45.0
45.0
45.0
45.0
45.0
45.0
45.0
45.0
45.0
45.0
45.0
45.0
45.0
45.0
45.0
45.0
45.0
45.0
45.0
45.0
45.0
45.0
45.0
45.0
45.0
45.0
45.0
45.0
45.0
45.0
45.0
45.0
45.0
45.0
45.0
45.0
45.0
45.0
45.0
45.0
45.0
45.0
45.0
45.0
45.0
45.0
45.0
45.0
45.0
45.0
45.0
45.0
45.0
45.0
45.0
45.0
45.0
45.0
45.0
45.0
45.0
45.0
45.0
45.0
45.0
45.0
45.0
45.0
45.0
45.0
45.0
45.0
45.0
45.0
45.0
45.0
45.0
45.0
45.0
45.0
45.0
45.0
45.0
45.0
45.0
45.0
45.0
45.0
45.0
45.0
45.0
45.0
45.0
45.0
45.0
45.0
45.0
45.0
45.0
45.0
45.0
45.0
45.0
45.0
45.0
45.0
45.0
45.0
45.0
45.0
45.0
45.0
45.0
45.0
45.0
45.0
45.0
45.0
45.0
45.0
45.0
45.0
45.0
45.0
45.0
45.0
45.0
45.0
45.0
45.0
45.0
45.0
45.0
45.0
45.0
45.0
45.0
45.0
45.0
45.0
45.0
45.0
45.0
45.0
45.0
45.0
45.0
45.0
45.0
45.0
45.0
45.0
45.0
45.0
45.0
45.0
45.0
45.0
45.0
45.0
45.0
45.0
45.0
45.0
45.0
45.0
45.0
45.0
45.0
45.0
45.0
45.0
45.0
45.0
45.0
45.0
45.0
45.0
45.0
45.0
45.0
45.0
45.0
45.0
45.0
45.0
45.0
45.0
45.0
45.0
45.0
45.0
45.0
45.0
45.0
45.0
45.0
45.0
45.0
45.0
45.0
45.0
45.0
45.0
45.0
45.0
45.0
45.0
45.0
45.0
45.0
45.0
45.0
45.0
45.0
45.0
45.0
45.0
45.0
45.0
45.0
45.0
45.0
45.0
45.0
45.0
45.0
45.0
45.0
45.0
45.0
45.0
45.0
45.0
45.0
45.0
45.0
45.0
45.0
45.0
45.0
45.0
45.0
45.0
45.0
45.0
45.0
45.0
45.0
45.0
45.0
45.0
45.0
45.0
45.0
45.0
45.0
45.0
45.0
45.0
45.0
45.0
45.0
45.0
45.0
45.0
45.0
45.0
45.0
45.0
45.0
45.0
45.0
45.0
45.0
45.0
45.0
45.0
45.0
45.0
45.0
45.0
45.0
45.0
45.0
45.0
45.0
45.0
45.0
45.0
45.0
45.0
45.0
45.0
45.0
45.0
45.0
45.0
45.0
45.0
45.0
45.0
45.0
45.0
45.0
45.0
45.0
45.0
45.0
45.0
45.0
45.0
45.0
45.0
45.0
45.0
45.0
45.0
45.0
45.0
45.0
45.0
45.0
45.0
45.0
45.0
45.0
45.0
45.0
45.0
45.0
45.0
45.0
45.0
45.0
45.0
45.0
45.0
45.0
45.0
45.0
45.0
45.0
45.0
45.0
45.0
45.0
45.0
45.0
45.0
45.0
45.0
45.0
45.0
45.0
45.0
45.0
45.0
45.0
45.0
45.0
45.0
45.0
45.0
45.0
45.0
45.0
45.0
45.0
45.0
45.0
45.0
45.0
45.0
45.0
45.0
45.0
45.0
45.0
45.0
45.0
45.0
45.0
45.0
45.0
45.0
45.0
45.0
45.0
45.0
45.0
45.0
45.0
45.0
45.0
45.0
45.0
45.0
45.0
45.0
45.0
45.0
45.0
45.0
45.0
45.0
45.0
45.0
45.0
45.0
45.0
45.0
45.0
45.0
45.0
45.0
45.0
45.0
45.0
45.0
45.0
45.0
45.0
45.0
45.0
45.0
45.0
45.0
45.0
45.0
45.0
45.0
45.0
45.0
45.0
45.0
45.0
45.0
45.0
45.0
45.0
45.0
45.0
45.0
45.0
45.0
45.0
45.0
45.0
45.0
45.0
45.0
45.0
45.0
45.0
45.0
45.0
45.0
45.0
45.0
45.0
45.0
45.0
45.0
45.0
45.0
45.0
45.0
45.0
45.0
45.0
45.0
45.0
45.0
45.0
45.0
45.0
45.0
45.0
45.0
45.0
45.0
45.0
45.0
45.0
45.0
45.0
45.0
45.0
45.0
45.0
45.0
45.0
45.0
45.0
45.0
45.0
45.0
45.0
45.0
45.0
45.0
45.0
45.0
45.0
45.0
45.0
45.0
45.0
45.0
45.0
45.0
45.0
45.0
45.0
45.0
45.0
45.0
45.0
45.0
45.0
45.0
45.0
45.0
45.0
45.0
45.0
45.0
45.0
SCALARS Fcdg_x float 1
LOOKUP_TABLE default
-2.758729365666957e-13
1127.482517629952
1209.7736040665905
1236.029660022379
1261.6134933804542
1909.7472545951855
2163.8670002309022
2349.770108072874
2499.1462511695154
2624.0930669349773
2731.5763722630913
2825.51475484748
2908.554139830846
-1.0534267998427168e-13
922.3398935456551
986.2672427847084
1007.1717499618323
1027.8478954355312
1675.9816566502625
1930.1014022859792
2116.0045101279507
2265.3806532245926
2390.3274689900545
2497.810774318168
2591.749156902557
2674.7885418859228
-4.4640319314911975e-13
678.7726152138391
724.7467773925082
739.951248728117
755.0882171996809
1403.2219784144122
1657.341724050129
1843.2448318921006
1992.620974988742
2117.567790754204
2225.051096082318
2318.989478666707
2402.0288636500727
-3.042946459970997e-13
413.4081985816081
441.105907237011
450.31562737372735
459.5125502314039
1107.6463114461353
1361.766057081852
1547.6691649238232
1697.0453080204652
1821.992123785927
1929.475429114041
2023.4138116984298
2106.4531966817954
-2.616620818514937e-13
138.59800269481696
147.842638425185
150.92338889319745
154.0036946213746
802.137455836106
1056.2572014718228
1242.1603093137942
1391.5364524104357
1516.483268175898
1623.9665735040116
1717.9049560884005
1800.9443410717663
-2.7031016474179954e-13
-2.7031016474179954e-14
-1.0812406589671981e-14
-5.406203294835991e-15
0.0
648.1337612147314
902.2535068504482
1088.1566146924195
1237.5327577890612
1362.4795735545233
1469.9628788826371
1563.901261467026
1646.9406464503916
-2.758729365666957e-13
-138.59800269481696
-147.842638425185
-150.92338889319745
-154.0036946213746
494.1300665933568
748.2498122290735
934.1529200710448
1083.5290631676867
1208.4758789331486
1315.9591842612626
1409.8975668456515
1492.9369518290168
-2.190295177058877e-13
-413.4081985816081
-441.105907237011
-450.31562737372735
-459.5125502314039
188.6212109833275
442.74095661904425
628.6440644610155
778.0202075576573
902.9670233231194
1010.4503286512332
1104.388711235622
1187.4280962189878
-2.758729365666957e-13
-678.7726152138391
-724.7467773925082
-739.951248728117
-755.0882171996809
-106.9544559849495
147.16528965076725
333.06839749273854
482.44454058938027
607.3913563548424
714.8746616829562
808.813044267345
891.8524292507107
-3.327163554275037e-13
-922.3398935456551
-986.2672427847084
-1007.1717499618323
-1027.8478954355312
-379.71413422079985
-125.5943885850831
60.30871925688825
209.68486235352998
334.6316781189921
442.11498344710594
536.0533660314948
619.0927510148604
-1.621860988450797e-13
-1127.482517629952
-1209.7736040665905
-1236.029660022379
-1261.6134933804542
-613.4797321657229
-359.3599865300061
-173.45687868803475
-24.080735591393022
100.86608017406911
208.34938550218294
302.28776808657176
385.32715306993737
-766.5698803106644
1013.33186062405
1165.8888144378207
1214.4683181387632
1261.6134933804542
1728.8561560116727
1983.7175933812746
2176.336943436398
2333.9422120771624
2468.036552298043
2584.45539807275
2687.206835637509
2778.7959976772363
-766.5698803106644
828.4112698658594
949.2428096607019
988.7715735116485
1027.8478954355312
1495.0905580667497
1749.9519954363516
1942.571345491475
2100.176614132239
2234.27095435312
2350.689800127827
2453.4412376925857
2545.0303997323135
-766.5698803106643
593.4857502386154
690.8206938814928
723.0267890480766
755.0882171996809
1222.3308798308994
1477.1923172005013
1669.8116672556248
1827.416935896389
1961.5112761172695
2077.930121891977
2180.6815594567356
2272.270721496463
-766.5698803106645
332.5777854705757
408.8285591579255
434.1886309966728
459.5125502314039
926.7552128626224
1181.6166502322242
1374.236000287348
1531.8412689281117
1665.9356091489926
1782.3544549236997
1885.1058924884585
1976.6950545281861
-766.5698803106644
60.12341020030928
116.45672586335971
135.23184293114332
154.0036946213746
621.2463572525932
876.1077946221949
1068.7271446773184
1226.3324133180827
1360.426753538963
1476.8455993136704
1579.5970368784292
1671.1861989181566
-766.5698803106643
-77.82744782868201
-31.135043842328734
-15.567812322645253
0.0
467.24266263121854
722.1041000008203
914.7234500559439
1072.328718696708
1206.4230589175886
1322.8419046922959
1425.5933422570547
1517.182504296782
-766.5698803106644
-216.07316674242702
-178.835531730804
-166.42003682681653
-154.0036946213746
313.2389680098439
568.1004053794456
760.7197554345693
918.3250240753333
1052.419364296214
1168.8382100709214
1271.5896476356802
1363.1788096754076
-766.5698803106644
-491.02908454863257
-472.12612069699804
-465.82028497509435
-459.5125502314039
7.7301123998146295
262.59154976941636
455.21089982454
612.816168465304
746.9105086861847
863.329354460892
966.0807920256508
1057.669954065378
-766.5698803106644
-757.833349238723
-756.2575761467353
-755.6851555316998
-755.0882171996809
-287.8455545684624
-32.984117198860645
159.63523285626297
317.240501497027
451.3348417179077
567.753687492615
670.5051250573738
762.0942870971012
-766.5698803106644
-1004.7715078587127
-1018.9223975924077
-1023.4389605119384
-1027.8478954355312
-560.6052328043127
-305.7437954347109
-113.12444537958731
44.48082326117674
178.5751634820574
294.9940092567647
397.7454468215235
489.3346088612509
-766.5698803106643
-1217.1060597165733
-1244.7457552467308
-1253.3462988397528
-1261.6134933804542
-794.3708307492357
-539.5093933796338
-346.8900433245103
-189.28477468374626
-55.190434462865596
61.22841131184168
163.9798488766005
255.5690109163279
-1509.847922711165
827.1101282357762
1095.292509799899
1180.3335177226536
1261.6134933804542
1611.5768686641372
1849.5984212390158
2039.183826741416
2198.8759440518843
2337.5302680041877
2459.677138412082
2568.8236280374604
2667.118061762785
-1509.847922711165
708.1147630770542
902.0854165928217
965.4219301506066
1027.8478954355312
1377.8112707192142
1615.8328232940928
1805.4182287964927
1965.1103461069615
2103.764670059265
2225.911540467159
2335.0580300925376
2433.3524638178624
-1509.847922711165
493.7355893319528
651.1998513925475
703.2838151236036
755.0882171996809
1105.051592483364
1343.0731450582425
1532.6585505606427
1692.350667871111
1831.0049918234145
1953.1518622313088
2062.298351856687
2160.592785582012
-1509.8479227111648
242.54063843714906
372.8759431027586
416.2313155445387
459.5125502314039
809.475925515087
1047.4974780899656
1237.0828835923653
1396.775000902834
1535.4293248551376
1657.5761952630314
1766.7226848884102
1865.017118613735
-1509.847922711165
-24.45527363990108
82.60885994152454
118.3093029716822
154.0036946213746
503.9670699050577
741.9886224799362
931.5740279823361
1091.266145292805
1229.920469245108
1352.0673396530024
1461.2138292783811
1559.508263003706
-1509.847922711165
-160.56833920015256
-64.26305376351142
-32.134080606472494
0.0
349.96337528368315
587.9849278585616
777.5703333609615
937.2624506714303
1075.9167746237335
1198.0636450316276
1307.2101346570064
1405.5045683823312
-1509.847922711165
-297.39579159914496
-211.40088933316878
-182.7064392461533
-154.0036946213746
195.95968066230856
433.981233237187
623.5666387395869
783.2587560500557
921.9130800023589
1044.059950410253