# vtk DataFile Version 3.0
Kart explore — axes cap, volant, gaz ; temps = vit (voir .pvd)
ASCII
DATASET POLYDATA
POINTS 2574 float
-90.0 -45.0 -4.0
-90.0 -45.0 -3.0
-90.0 -45.0 -2.0
-90.0 -45.0 -1.0
-90.0 -45.0 0.0
-90.0 -45.0 10.0
-90.0 -45.0 20.0
-90.0 -45.0 30.0
-90.0 -45.0 40.0
-90.0 -45.0 50.0
-90.0 -45.0 60.0
-90.0 -45.0 70.0
-90.0 -45.0 80.0
-90.0 -35.0 -4.0
-90.0 -35.0 -3.0
-90.0 -35.0 -2.0
-90.0 -35.0 -1.0
-90.0 -35.0 0.0
-90.0 -35.0 10.0
-90.0 -35.0 20.0
-90.0 -35.0 30.0
-90.0 -35.0 40.0
-90.0 -35.0 50.0
-90.0 -35.0 60.0
-90.0 -35.0 70.0
-90.0 -35.0 80.0
-90.0 -25.0 -4.0
-90.0 -25.0 -3.0
-90.0 -25.0 -2.0
-90.0 -25.0 -1.0
-90.0 -25.0 0.0
-90.0 -25.0 10.0
-90.0 -25.0 20.0
-90.0 -25.0 30.0
-90.0 -25.0 40.0
-90.0 -25.0 50.0
-90.0 -25.0 60.0
-90.0 -25.0 70.0
-90.0 -25.0 80.0
-90.0 -15.0 -4.0
-90.0 -15.0 -3.0
-90.0 -15.0 -2.0
-90.0 -15.0 -1.0
-90.0 -15.0 0.0
-90.0 -15.0 10.0
-90.0 -15.0 20.0
-90.0 -15.0 30.0
-90.0 -15.0 40.0
-90.0 -15.0 50.0
-90.0 -15.0 60.0
-90.0 -15.0 70.0
-90.0 -15.0 80.0
-90.0 -5.0 -4.0
-90.0 -5.0 -3.0
-90.0 -5.0 -2.0
-90.0 -5.0 -1.0
-90.0 -5.0 0.0
-90.0 -5.0 10.0
-90.0 -5.0 20.0
-90.0 -5.0 30.0
-90.0 -5.0 40.0
-90.0 -5.0 50.0
-90.0 -5.0 60.0
-90.0 -5.0 70.0
-90.0 -5.0 80.0
-90.0 0.0 -4.0
-90.0 0.0 -3.0
-90.0 0.0 -2.0
-90.0 0.0 -1.0
-90.0 0.0 0.0
-90.0 0.0 10.0
-90.0 0.0 20.0
-90.0 0.0 30.0
-90.0 0.0 40.0
-90.0 0.0 50.0
-90.0 0.0 60.0
-90.0 0.0 70.0
-90.0 0.0 80.0
-90.0 5.0 -4.0
-90.0 5.0 -3.0
-90.0 5.0 -2.0
-90.0 5.0 -1.0
-90.0 5.0 0.0
-90.0 5.0 10.0
-90.0 5.0 20.0
-90.0 5.0 30.0
-90.0 5.0 40.0
-90.0 5.0 50.0
-90.0 5.0 60.0
-90.0 5.0 70.0
-90.0 5.0 80.0
-90.0 15.0 -4.0
-90.0 15.0 -3.0
-90.0 15.0 -2.0
-90.0 15.0 -1.0
-90.0 15.0 0.0
-90.0 15.0 10.0
-90.0 15.0 20.0
-90.0 15.0 30.0
-90.0 15.0 40.0
-90.0 15.0 50.0
-90.0 15.0 60.0
-90.0 15.0 70.0
-90.0 15.0 80.0
-90.0 25.0 -4.0
-90.0 25.0 -3.0
-90.0 25.0 -2.0
-90.0 25.0 -1.0
-90.0 25.0 0.0
-90.0 25.0 10.0
-90.0 25.0 20.0
-90.0 25.0 30.0
-90.0 25.0 40.0
-90.0 25.0 50.0
-90.0 25.0 60.0
-90.0 25.0 70.0
-90.0 25.0 80.0
-90.0 35.0 -4.0
-90.0 35.0 -3.0
-90.0 35.0 -2.0
-90.0 35.0 -1.0
-90.0 35.0 0.0
-90.0 35.0 10.0
-90.0 35.0 20.0
-90.0 35.0 30.0
-90.0 35.0 40.0
-90.0 35.0 50.0
-90.0 35.0 60.0
-90.0 35.0 70.0
-90.0 35.0 80.0
-90.0 45.0 -4.0
-90.0 45.0 -3.0
-90.0 45.0 -2.0
-90.0 45.0 -1.0
-90.0 45.0 0.0
-90.0 45.0 10.0
-90.0 45.0 20.0
-90.0 45.0 30.0
-90.0 45.0 40.0
-90.0 45.0 50.0
-90.0 45.0 60.0
-90.0 45.0 70.0
-90.0 45.0 80.0
-80.0 -45.0 -4.0
-80.0 -45.0 -3.0
-80.0 -45.0 -2.0
-80.0 -45.0 -1.0
-80.0 -45.0 0.0
-80.0 -45.0 10.0
-80.0 -45.0 20.0
-80.0 -45.0 30.0
-80.0 -45.0 40.0
-80.0 -45.0 50.0
-80.0 -45.0 60.0
-80.0 -45.0 70.0
-80.0 -45.0 80.0
-80.0 -35.0 -4.0
-80.0 -35.0 -3.0
-80.0 -35.0 -2.0
-80.0 -35.0 -1.0
-80.0 -35.0 0.0
-80.0 -35.0 10.0
-80.0 -35.0 20.0
-80.0 -35.0 30.0
-80.0 -35.0 40.0
-80.0 -35.0 50.0
-80.0 -35.0 60.0
-80.0 -35.0 70.0
-80.0 -35.0 80.0
-80.0 -25.0 -4.0
-80.0 -25.0 -3.0
-80.0 -25.0 -2.0
-80.0 -25.0 -1.0
-80.0 -25.0 0.0
-80.0 -25.0 10.0
-80.0 -25.0 20.0
-80.0 -25.0 30.0
-80.0 -25.0 40.0
-80.0 -25.0 50.0
-80.0 -25.0 60.0
-80.0 -25.0 70.0
-80.0 -25.0 80.0
-80.0 -15.0 -4.0
-80.0 -15.0 -3.0
-80.0 -15.0 -2.0
-80.0 -15.0 -1.0
-80.0 -15.0 0.0
-80.0 -15.0 10.0
-80.0 -15.0 20.0
-80.0 -15.0 30.0
-80.0 -15.0 40.0
-80.0 -15.0 50.0
-80.0 -15.0 60.0
-80.0 -15.0 70.0
-80.0 -15.0 80.0
-80.0 -5.0 -4.0
-80.0 -5.0 -3.0
-80.0 -5.0 -2.0
-80.0 -5.0 -1.0
-80.0 -5.0 0.0
-80.0 -5.0 10.0
-80.0 -5.0 20.0
-80.0 -5.0 30.0
-80.0 -5.0 40.0
-80.0 -5.0 50.0
-80.0 -5.0 60.0
-80.0 -5.0 70.0
-80.0 -5.0 80.0
-80.0 0.0 -4.0
-80.0 0.0 -3.0
-80.0 0.0 -2.0
-80.0 0.0 -1.0
-80.0 0.0 0.0
-80.0 0.0 10.0
-80.0 0.0 20.0
-80.0 0.0 30.0
-80.0 0.0 40.0
-80.0 0.0 50.0
-80.0 0.0 60.0
-80.0 0.0 70.0
-80.0 0.0 80.0
-80.0 5.0 -4.0
-80.0 5.0 -3.0
-80.0 5.0 -2.0
-80.0 5.0 -1.0
-80.0 5.0 0.0
-80.0 5.0 10.0
-80.0 5.0 20.0
-80.0 5.0 30.0
-80.0 5.0 40.0
-80.0 5.0 50.0
-80.0 5.0 60.0
-80.0 5.0 70.0
-80.0 5.0 80.0
-80.0 15.0 -4.0
-80.0 15.0 -3.0
-80.0 15.0 -2.0
-80.0 15.0 -1.0
-80.0 15.0 0.0
-80.0 15.0 10.0
-80.0 15.0 20.0
-80.0 15.0 30.0
-80.0 15.0 40.0
-80.0 15.0 50.0
-80.0 15.0 60.0
-80.0 15.0 70.0
-80.0 15.0 80.0
-80.0 25.0 -4.0
-80.0 25.0 -3.0
-80.0 25.0 -2.0
-80.0 25.0 -1.0
-80.0 25.0 0.0
-80.0 25.0 10.0
-80.0 25.0 20.0
-80.0 25.0 30.0
-80.0 25.0 40.0
-80.0 25.0 50.0
-80.0 25.0 60.0
-80.0 25.0 70.0
-80.0 25.0 80.0
-80.0 35.0 -4.0
-80.0 35.0 -3.0
-80.0 35.0 -2.0
-80.0 35.0 -1.0
-80.0 35.0 0.0
-80.0 35.0 10.0
-80.0 35.0 20.0
-80.0 35.0 30.0
-80.0 35.0 40.0
-80.0 35.0 50.0
-80.0 35.0 60.0
-80.0 35.0 70.0
-80.0 35.0 80.0
-80.0 45.0 -4.0
-80.0 45.0 -3.0
-80.0 45.0 -2.0
-80.0 45.0 -1.0
-80.0 45.0 0.0
-80.0 45.0 10.0
-80.0 45.0 20.0
-80.0 45.0 30.0
-80.0 45.0 40.0
-80.0 45.0 50.0
-80.0 45.0 60.0
-80.0 45.0 70.0
-80.0 45.0 80.0
-70.0 -45.0 -4.0
-70.0 -45.0 -3.0
-70.0 -45.0 -2.0
-70.0 -45.0 -1.0
-70.0 -45.0 0.0
-70.0 -45.0 10.0
-70.0 -45.0 20.0
-70.0 -45.0 30.0
-70.0 -45.0 40.0
-70.0 -45.0 50.0
-70.0 -45.0 60.0
-70.0 -45.0 70.0
-70.0 -45.0 80.0
-70.0 -35.0 -4.0
-70.0 -35.0 -3.0
-70.0 -35.0 -2.0
-70.0 -35.0 -1.0
-70.0 -35.0 0.0
-70.0 -35.0 10.0
-70.0 -35.0 20.0
-70.0 -35.0 30.0
-70.0 -35.0 40.0
-70.0 -35.0 50.0
-70.0 -35.0 60.0
-70.0 -35.0 70.0
-70.0 -35.0 80.0
-70.0 -25.0 -4.0
-70.0 -25.0 -3.0
-70.0 -25.0 -2.0
-70.0 -25.0 -1.0
-70.0 -25.0 0.0
-70.0 -25.0 10.0
-70.0 -25.0 20.0
-70.0 -25.0 30.0
-70.0 -25.0 40.0
-70.0 -25.0 50.0
-70.0 -25.0 60.0
-70.0 -25.0 70.0
-70.0 -25.0 80.0
-70.0 -15.0 -4.0
-70.0 -15.0 -3.0
-70.0 -15.0 -2.0
-70.0 -15.0 -1.0
-70.0 -15.0 0.0
-70.0 -15.0 10.0
-70.0 -15.0 20.0
-70.0 -15.0 30.0
-70.0 -15.0 40.0
-70.0 -15.0 50.0
-70.0 -15.0 60.0
-70.0 -15.0 70.0
-70.0 -15.0 80.0
-70.0 -5.0 -4.0
-70.0 -5.0 -3.0
-70.0 -5.0 -2.0
-70.0 -5.0 -1.0
-70.0 -5.0 0.0
-70.0 -5.0 10.0
-70.0 -5.0 20.0
-70.0 -5.0 30.0
-70.0 -5.0 40.0
-70.0 -5.0 50.0
-70.0 -5.0 60.0
-70.0 -5.0 70.0
-70.0 -5.0 80.0
-70.0 0.0 -4.0
-70.0 0.0 -3.0
-70.0 0.0 -2.0
-70.0 0.0 -1.0
-70.0 0.0 0.0
-70.0 0.0 10.0
-70.0 0.0 20.0
-70.0 0.0 30.0
-70.0 0.0 40.0
-70.0 0.0 50.0
-70.0 0.0 60.0
-70.0 0.0 70.0
-70.0 0.0 80.0
-70.0 5.0 -4.0
-70.0 5.0 -3.0
-70.0 5.0 -2.0
-70.0 5.0 -1.0
-70.0 5.0 0.0
-70.0 5.0 10.0
-70.0 5.0 20.0
-70.0 5.0 30.0
-70.0 5.0 40.0
-70.0 5.0 50.0
-70.0 5.0 60.0
-70.0 5.0 70.0
-70.0 5.0 80.0
-70.0 15.0 -4.0
-70.0 15.0 -3.0
-70.0 15.0 -2.0
-70.0 15.0 -1.0
-70.0 15.0 0.0
-70.0 15.0 10.0
-70.0 15.0 20.0
-70.0 15.0 30.0
-70.0 15.0 40.0
-70.0 15.0 50.0
-70.0 15.0 60.0
-70.0 15.0 70.0
-70.0 15.0 80.0
-70.0 25.0 -4.0
-70.0 25.0 -3.0
-70.0 25.0 -2.0
-70.0 25.0 -1.0
-70.0 25.0 0.0
-70.0 25.0 10.0
-70.0 25.0 20.0
-70.0 25.0 30.0
-70.0 25.0 40.0
-70.0 25.0 50.0
-70.0 25.0 60.0
-70.0 25.0 70.0
-70.0 25.0 80.0
-70.0 35.0 -4.0
-70.0 35.0 -3.0
-70.0 35.0 -2.0
-70.0 35.0 -1.0
-70.0 35.0 0.0
-70.0 35.0 10.0
-70.0 35.0 20.0
-70.0 35.0 30.0
-70.0 35.0 40.0
-70.0 35.0 50.0
-70.0 35.0 60.0
-70.0 35.0 70.0
-70.0 35.0 80.0
-70.0 45.0 -4.0
-70.0 45.0 -3.0
-70.0 45.0 -2.0
-70.0 45.0 -1.0
-70.0 45.0 0.0
-70.0 45.0 10.0
-70.0 45.0 20.0
-70.0 45.0 30.0
-70.0 45.0 40.0
-70.0 45.0 50.0
-70.0 45.0 60.0
-70.0 45.0 70.0
-70.0 45.0 80.0
-59.99999999999999 -45.0 -4.0
-59.99999999999999 -45.0 -3.0
-59.99999999999999 -45.0 -2.0
-59.99999999999999 -45.0 -1.0
-59.99999999999999 -45.0 0.0
-59.99999999999999 -45.0 10.0
-59.99999999999999 -45.0 20.0
-59.99999999999999 -45.0 30.0
-59.99999999999999 -45.0 40.0
-59.99999999999999 -45.0 50.0
-59.99999999999999 -45.0 60.0
-59.99999999999999 -45.0 70.0
-59.99999999999999 -45.0 80.0
-59.99999999999999 -35.0 -4.0
-59.99999999999999 -35.0 -3.0
-59.99999999999999 -35.0 -2.0
-59.99999999999999 -35.0 -1.0
-59.99999999999999 -35.0 0.0
-59.99999999999999 -35.0 10.0
-59.99999999999999 -35.0 20.0
-59.99999999999999 -35.0 30.0
-59.99999999999999 -35.0 40.0
-59.99999999999999 -35.0 50.0
-59.99999999999999 -35.0 60.0
-59.99999999999999 -35.0 70.0
-59.99999999999999 -35.0 80.0
-59.99999999999999 -25.0 -4.0
-59.99999999999999 -25.0 -3.0
-59.99999999999999 -25.0 -2.0
-59.99999999999999 -25.0 -1.0
-59.99999999999999 -25.0 0.0
-59.99999999999999 -25.0 10.0
-59.99999999999999 -25.0 20.0
-59.99999999999999 -25.0 30.0
-59.99999999999999 -25.0 40.0
-59.99999999999999 -25.0 50.0
-59.99999999999999 -25.0 60.0
-59.99999999999999 -25.0 70.0
-59.99999999999999 -25.0 80.0
-59.99999999999999 -15.0 -4.0
-59.99999999999999 -15.0 -3.0
-59.99999999999999 -15.0 -2.0
-59.99999999999999 -15.0 -1.0
-59.99999999999999 -15.0 0.0
-59.99999999999999 -15.0 10.0
-59.99999999999999 -15.0 20.0
-59.99999999999999 -15.0 30.0
-59.99999999999999 -15.0 40.0
-59.99999999999999 -15.0 50.0
-59.99999999999999 -15.0 60.0
-59.99999999999999 -15.0 70.0
-59.99999999999999 -15.0 80.0
-59.99999999999999 -5.0 -4.0
-59.99999999999999 -5.0 -3.0
-59.99999999999999 -5.0 -2.0
-59.99999999999999 -5.0 -1.0
-59.99999999999999 -5.0 0.0
-59.99999999999999 -5.0 10.0
-59.99999999999999 -5.0 20.0
-59.99999999999999 -5.0 30.0
-59.99999999999999 -5.0 40.0
-59.99999999999999 -5.0 50.0
-59.99999999999999 -5.0 60.0
-59.99999999999999 -5.0 70.0
-59.99999999999999 -5.0 80.0
-59.99999999999999 0.0 -4.0
-59.99999999999999 0.0 -3.0
-59.99999999999999 0.0 -2.0
-59.99999999999999 0.0 -1.0
-59.99999999999999 0.0 0.0
-59.99999999999999 0.0 10.0
-59.99999999999999 0.0 20.0
-59.99999999999999 0.0 30.0
-59.99999999999999 0.0 40.0
-59.99999999999999 0.0 50.0
-59.99999999999999 0.0 60.0
-59.99999999999999 0.0 70.0
-59.99999999999999 0.0 80.0
-59.99999999999999 5.0 -4.0
-59.99999999999999 5.0 -3.0
-59.99999999999999 5.0 -2.0
-59.99999999999999 5.0 -1.0
-59.99999999999999 5.0 0.0
-59.99999999999999 5.0 10.0
-59.99999999999999 5.0 20.0
-59.99999999999999 5.0 30.0
-59.99999999999999 5.0 40.0
-59.99999999999999 5.0 50.0
-59.99999999999999 5.0 60.0
-59.99999999999999 5.0 70.0
-59.99999999999999 5.0 80.0
-59.99999999999999 15.0 -4.0
-59.99999999999999 15.0 -3.0
-59.99999999999999 15.0 -2.0
-59.99999999999999 15.0 -1.0
-59.99999999999999 15.0 0.0
-59.99999999999999 15.0 10.0
-59.99999999999999 15.0 20.0
-59.99999999999999 15.0 30.0
-59.99999999999999 15.0 40.0
-59.99999999999999 15.0 50.0
[...]
POINT_DATA 2574
SCALARS vitesse float 1
LOOKUP_TABLE default
15.0
15.0
15.0
15.0
15.0
15.0
15.0
15.0
15.0
15.0
15.0
15.0
15.0
15.0
15.0
15.0
15.0
15.0
15.0
15.0
15.0
15.0
15.0
15.0
15.0
15.0
15.0
15.0
15.0
15.0
15.0
15.0
15.0
15.0
15.0
15.0
15.0
15.0
15.0
15.0
15.0
15.0
15.0
15.0
15.0
15.0
15.0
15.0
15.0
15.0
15.0
15.0
15.0
15.0
15.0
15.0
15.0
15.0
15.0
15.0
15.0
15.0
15.0
15.0
15.0
15.0
15.0
15.0
15.0
15.0
15.0
15.0
15.0
15.0
15.0
15.0
15.0
15.0
15.0
15.0
15.0
15.0
15.0
15.0
15.0
15.0
15.0
15.0
15.0
15.0
15.0
15.0
15.0
15.0
15.0
15.0
15.0
15.0
15.0
15.0
15.0
15.0
15.0
15.0
15.0
15.0
15.0
15.0
15.0
15.0
15.0
15.0
15.0
15.0
15.0
15.0
15.0
15.0
15.0
15.0
15.0
15.0
15.0
15.0
15.0
15.0
15.0
15.0
15.0
15.0
15.0
15.0
15.0
15.0
15.0
15.0
15.0
15.0
15.0
15.0
15.0
15.0
15.0
15.0
15.0
15.0
15.0
15.0
15.0
15.0
15.0
15.0
15.0
15.0
15.0
15.0
15.0
15.0
15.0
15.0
15.0
15.0
15.0
15.0
15.0
15.0
15.0
15.0
15.0
15.0
15.0
15.0
15.0
15.0
15.0
15.0
15.0
15.0
15.0
15.0
15.0
15.0
15.0
15.0
15.0
15.0
15.0
15.0
15.0
15.0
15.0
15.0
15.0
15.0
15.0
15.0
15.0
15.0
15.0
15.0
15.0
15.0
15.0
15.0
15.0
15.0
15.0
15.0
15.0
15.0
15.0
15.0
15.0
15.0
15.0
15.0
15.0
15.0
15.0
15.0
15.0
15.0
15.0
15.0
15.0
15.0
15.0
15.0
15.0
15.0
15.0
15.0
15.0
15.0
15.0
15.0
15.0
15.0
15.0
15.0
15.0
15.0
15.0
15.0
15.0
15.0
15.0
15.0
15.0
15.0
15.0
15.0
15.0
15.0
15.0
15.0
15.0
15.0
15.0
15.0
15.0
15.0
15.0
15.0
15.0
15.0
15.0
15.0
15.0
15.0
15.0
15.0
15.0
15.0
15.0
15.0
15.0
15.0
15.0
15.0
15.0
15.0
15.0
15.0
15.0
15.0
15.0
15.0
15.0
15.0
15.0
15.0
15.0
15.0
15.0
15.0
15.0
15.0
15.0
15.0
15.0
15.0
15.0
15.0
15.0
15.0
15.0
15.0
15.0
15.0
15.0
15.0
15.0
15.0
15.0
15.0
15.0
15.0
15.0
15.0
15.0
15.0
15.0
15.0
15.0
15.0
15.0
15.0
15.0
15.0
15.0
15.0
15.0
15.0
15.0
15.0
15.0
15.0
15.0
15.0
15.0
15.0
15.0
15.0
15.0
15.0
15.0
15.0
15.0
15.0
15.0
15.0
15.0
15.0
15.0
15.0
15.0
15.0
15.0
15.0
15.0
15.0
15.0
15.0
15.0
15.0
15.0
15.0
15.0
15.0
15.0
15.0
15.0
15.0
15.0
15.0
15.0
15.0
15.0
15.0
15.0
15.0
15.0
15.0
15.0
15.0
15.0
15.0
15.0
15.0
15.0
15.0
15.0
15.0
15.0
15.0
15.0
15.0
15.0
15.0
15.0
15.0
15.0
15.0
15.0
15.0
15.0
15.0
15.0
15.0
15.0
15.0
15.0
15.0
15.0
15.0
15.0
15.0
15.0
15.0
15.0
15.0
15.0
15.0
15.0
15.0
15.0
15.0
15.0
15.0
15.0
15.0
15.0
15.0
15.0
15.0
15.0
15.0
15.0
15.0
15.0
15.0
15.0
15.0
15.0
15.0
15.0
15.0
15.0
15.0
15.0
15.0
15.0
15.0
15.0
15.0
15.0
15.0
15.0
15.0
15.0
15.0
15.0
15.0
15.0
15.0
15.0
15.0
15.0
15.0
15.0
15.0
15.0
15.0
15.0
15.0
15.0
15.0
15.0
15.0
15.0
15.0
15.0
15.0
15.0
15.0
15.0
15.0
15.0
15.0
15.0
15.0
15.0
15.0
15.0
15.0
15.0
15.0
15.0
15.0
15.0
15.0
15.0
15.0
15.0
15.0
15.0
15.0
15.0
15.0
15.0
15.0
15.0
15.0
15.0
15.0
15.0
15.0
15.0
15.0
15.0
15.0
15.0
15.0
15.0
15.0
15.0
15.0
15.0
15.0
15.0
15.0
15.0
15.0
15.0
15.0
15.0
15.0
15.0
15.0
15.0
15.0
15.0
15.0
15.0
15.0
15.0
15.0
15.0
15.0
15.0
15.0
15.0
15.0
15.0
15.0
15.0
15.0
15.0
15.0
15.0
15.0
15.0
15.0
15.0
15.0
15.0
15.0
15.0
15.0
15.0
15.0
15.0
15.0
15.0
15.0
15.0
15.0
15.0
15.0
15.0
15.0
15.0
15.0
15.0
15.0
15.0
15.0
15.0
15.0
15.0
15.0
15.0
15.0
15.0
15.0
15.0
15.0
15.0
15.0
15.0
15.0
15.0
15.0
15.0
15.0
15.0
15.0
15.0
15.0
15.0
15.0
15.0
15.0
15.0
15.0
15.0
15.0
15.0
15.0
15.0
15.0
15.0
15.0
15.0
15.0
15.0
15.0
15.0
15.0
15.0
15.0
15.0
15.0
15.0
15.0
15.0
15.0
15.0
15.0
15.0
15.0
15.0
15.0
15.0
15.0
15.0
15.0
15.0
15.0
15.0
15.0
15.0
15.0
15.0
15.0
15.0
15.0
15.0
15.0
15.0
15.0
15.0
15.0
15.0
15.0
15.0
15.0
15.0
15.0
15.0
15.0
15.0
15.0
15.0
15.0
15.0
15.0
15.0
15.0
15.0
15.0
15.0
15.0
15.0
15.0
15.0
15.0
15.0
15.0
15.0
15.0
15.0
15.0
15.0
15.0
15.0
15.0
15.0
15.0
15.0
15.0
15.0
15.0
15.0
15.0
15.0
15.0
15.0
15.0
15.0
15.0
15.0
15.0
15.0
15.0
15.0
15.0
15.0
15.0
15.0
15.0
15.0
15.0
15.0
15.0
15.0
15.0
15.0
15.0
15.0
15.0
15.0
15.0
15.0
15.0
15.0
15.0
15.0
15.0
15.0
15.0
15.0
15.0
15.0
15.0
15.0
15.0
15.0
15.0
15.0
15.0
15.0
15.0
15.0
15.0
15.0
15.0
15.0
15.0
15.0
15.0
15.0
15.0
15.0
15.0
15.0
15.0
15.0
15.0
15.0
15.0
15.0
15.0
15.0
15.0
15.0
15.0
15.0
15.0
15.0
15.0
15.0
15.0
15.0
15.0
15.0
15.0
15.0
15.0
15.0
15.0
15.0
15.0
15.0
15.0
15.0
15.0
15.0
15.0
15.0
15.0
15.0
15.0
15.0
15.0
15.0
15.0
15.0
15.0
15.0
15.0
15.0
15.0
15.0
15.0
15.0
15.0
15.0
15.0
15.0
15.0
15.0
15.0
15.0
15.0
15.0
15.0
15.0
15.0
15.0
15.0
15.0
15.0
15.0
15.0
15.0
15.0
15.0
15.0
15.0
15.0
15.0
15.0
15.0
15.0
15.0
15.0
15.0
15.0
15.0
15.0
15.0
15.0
15.0
15.0
15.0
15.0
15.0
15.0
15.0
15.0
15.0
15.0
15.0
15.0
15.0
15.0
15.0
15.0
15.0
15.0
15.0
15.0
15.0
15.0
15.0
15.0
15.0
15.0
15.0
15.0
15.0
15.0
15.0
15.0
15.0
15.0
15.0
15.0
15.0
15.0
15.0
15.0
15.0
15.0
15.0
15.0
15.0
15.0
15.0
15.0
15.0
15.0
15.0
15.0
15.0
15.0
15.0
15.0
15.0
15.0
15.0
15.0
15.0
15.0
15.0
15.0
15.0
15.0
15.0
15.0
15.0
15.0
15.0
15.0
15.0
15.0
15.0
15.0
15.0
15.0
15.0
15.0
15.0
15.0
15.0
15.0
15.0
15.0
15.0
15.0
15.0
15.0
15.0
15.0
15.0
15.0
15.0
15.0
15.0
15.0
15.0
15.0
15.0
15.0
15.0
15.0
15.0
15.0
15.0
15.0
15.0
15.0
15.0
15.0
15.0
15.0
15.0
15.0
15.0
15.0
15.0
15.0
15.0
15.0
15.0
15.0
15.0
15.0
15.0
15.0
15.0
15.0
15.0
15.0
15.0
15.0
15.0
15.0
15.0
15.0
15.0
15.0
15.0
15.0
15.0
15.0
15.0
15.0
15.0
15.0
15.0
15.0
15.0
15.0
15.0
15.0
15.0
15.0
15.0
15.0
15.0
15.0
15.0
15.0
15.0
15.0
15.0
15.0
15.0
15.0
15.0
15.0
15.0
15.0
15.0
15.0
15.0
15.0
15.0
15.0
15.0
15.0
15.0
15.0
15.0
15.0
15.0
15.0
15.0
15.0
15.0
15.0
15.0
15.0
15.0
15.0
15.0
15.0
15.0
15.0
15.0
15.0
15.0
15.0
15.0
15.0
15.0
15.0
15.0
15.0
15.0
15.0
15.0
15.0
15.0
15.0
15.0
15.0
15.0
15.0
15.0
15.0
15.0
15.0
15.0
15.0
15.0
15.0
15.0
15.0
15.0
15.0
15.0
15.0
15.0
15.0
15.0
15.0
15.0
15.0
15.0
15.0
15.0
15.0
15.0
15.0
15.0
15.0
15.0
15.0
15.0
15.0
15.0
15.0
15.0
15.0
15.0
15.0
15.0
15.0
15.0
15.0
15.0
15.0
15.0
15.0
15.0
15.0
15.0
15.0
15.0
15.0
15.0
15.0
15.0
15.0
15.0
15.0
15.0
15.0
15.0
15.0
15.0
15.0
15.0
15.0
15.0
15.0
15.0
15.0
15.0
15.0
15.0
15.0
15.0
15.0
15.0
15.0
15.0
15.0
15.0
15.0
15.0
15.0
15.0
15.0
15.0
15.0
15.0
15.0
15.0
15.0
15.0
15.0
15.0
15.0
15.0
15.0
15.0
15.0
15.0
15.0
15.0
15.0
15.0
15.0
15.0
15.0
15.0
15.0
15.0
15.0
15.0
15.0
15.0
15.0
15.0
15.0
15.0
15.0
15.0
15.0
15.0
15.0
15.0
15.0
15.0
15.0
15.0
15.0
15.0
15.0
15.0
15.0
15.0
15.0
15.0
15.0
15.0
15.0
15.0
15.0
15.0
15.0
15.0
15.0
15.0
15.0
15.0
15.0
15.0
15.0
15.0
15.0
15.0
15.0
15.0
15.0
15.0
15.0
15.0
15.0
15.0
15.0
15.0
15.0
15.0
15.0
15.0
15.0
15.0
15.0
15.0
15.0
15.0
15.0
15.0
15.0
15.0
15.0
15.0
15.0
15.0
15.0
15.0
15.0
15.0
15.0
15.0
15.0
15.0
15.0
15.0
15.0
15.0
15.0
15.0
15.0
15.0
15.0
15.0
15.0
15.0
15.0
15.0
15.0
15.0
15.0
15.0
15.0
15.0
15.0
15.0
15.0
15.0
15.0
15.0
15.0
15.0
15.0
15.0
15.0
15.0
15.0
15.0
15.0
15.0
15.0
15.0
15.0
15.0
15.0
15.0
15.0
15.0
15.0
15.0
15.0
15.0
15.0
15.0
15.0
15.0
15.0
15.0
15.0
15.0
15.0
15.0
15.0
15.0
15.0
15.0
15.0
15.0
15.0
15.0
15.0
15.0
15.0
15.0
15.0
15.0
15.0
15.0
15.0
15.0
15.0
15.0
15.0
15.0
15.0
15.0
15.0
15.0
15.0
15.0
15.0
15.0
15.0
15.0
15.0
15.0
15.0
15.0
15.0
15.0
15.0
15.0
15.0
15.0
15.0
15.0
15.0
15.0
15.0
15.0
15.0
15.0
15.0
15.0
15.0
15.0
15.0
15.0
15.0
15.0
15.0
15.0
15.0
15.0
15.0
15.0
15.0
15.0
15.0
15.0
15.0
15.0
15.0
15.0
15.0
15.0
15.0
15.0
15.0
15.0
15.0
15.0
15.0
15.0
15.0
15.0
15.0
15.0
15.0
15.0
15.0
15.0
15.0
15.0
15.0
15.0
15.0
15.0
15.0
15.0
15.0
15.0
15.0
15.0
15.0
15.0
15.0
15.0
15.0
15.0
15.0
15.0
15.0
15.0
15.0
15.0
15.0
15.0
15.0
15.0
15.0
15.0
15.0
15.0
15.0
15.0
15.0
15.0
15.0
15.0
15.0
15.0
15.0
15.0
15.0
15.0
15.0
15.0
15.0
15.0
15.0
15.0
15.0
15.0
15.0
15.0
15.0
15.0
15.0
15.0
15.0
15.0
15.0
15.0
15.0
15.0
15.0
15.0
15.0
15.0
15.0
15.0
15.0
15.0
15.0
15.0
15.0
15.0
15.0
15.0
15.0
15.0
15.0
15.0
15.0
15.0
15.0
15.0
15.0
15.0
15.0
15.0
15.0
15.0
15.0
15.0
15.0
15.0
15.0
15.0
15.0
15.0
15.0
15.0
15.0
15.0
15.0
15.0
15.0
15.0
15.0
15.0
15.0
15.0
15.0
15.0
15.0
15.0
15.0
15.0
15.0
15.0
15.0
15.0
15.0
15.0
15.0
15.0
15.0
15.0
15.0
15.0
15.0
15.0
15.0
15.0
15.0
15.0
15.0
15.0
15.0
15.0
15.0
15.0
15.0
15.0
15.0
15.0
15.0
15.0
15.0
15.0
15.0
15.0
15.0
15.0
15.0
15.0
15.0
15.0
15.0
15.0
15.0
15.0
15.0
15.0
15.0
15.0
15.0
15.0
15.0
15.0
15.0
15.0
15.0
15.0
15.0
15.0
15.0
15.0
15.0
15.0
15.0
15.0
15.0
15.0
15.0
15.0
15.0
15.0
15.0
15.0
15.0
15.0
15.0
15.0
15.0
15.0
15.0
15.0
15.0
15.0
15.0
15.0
15.0
15.0
15.0
15.0
15.0
15.0
15.0
15.0
15.0
15.0
15.0
15.0
15.0
15.0
15.0
15.0
15.0
15.0
15.0
15.0
15.0
15.0
15.0
15.0
15.0
15.0
15.0
15.0
15.0
15.0
15.0
15.0
15.0
15.0
15.0
15.0
15.0
15.0
15.0
15.0
15.0
15.0
15.0
15.0
15.0
15.0
15.0
15.0
15.0
15.0
15.0
15.0
15.0
15.0
15.0
15.0
15.0
15.0
15.0
15.0
15.0
15.0
15.0
15.0
15.0
15.0
15.0
15.0
15.0
15.0
15.0
15.0
15.0
15.0
15.0
15.0
15.0
15.0
15.0
15.0
15.0
15.0
15.0
15.0
15.0
15.0
15.0
15.0
15.0
15.0
15.0
15.0
15.0
15.0
15.0
15.0
15.0
15.0
15.0
15.0
15.0
15.0
15.0
15.0
15.0
15.0
15.0
15.0
15.0
15.0
15.0
15.0
15.0
15.0
15.0
15.0
15.0
15.0
15.0
15.0
15.0
15.0
15.0
15.0
15.0
15.0
15.0
15.0
15.0
15.0
15.0
15.0
15.0
15.0
15.0
15.0
15.0
15.0
15.0
15.0
15.0
15.0
15.0
15.0
15.0
15.0
15.0
15.0
15.0
15.0
15.0
15.0
15.0
15.0
15.0
15.0
15.0
15.0
15.0
15.0
15.0
15.0
15.0
15.0
15.0
15.0
15.0
15.0
15.0
15.0
15.0
15.0
15.0
15.0
15.0
15.0
15.0
15.0
15.0
15.0
15.0
15.0
15.0
15.0
15.0
15.0
15.0
15.0
15.0
15.0
15.0
15.0
15.0
15.0
15.0
15.0
15.0
15.0
15.0
15.0
15.0
15.0
15.0
15.0
15.0
15.0
15.0
15.0
15.0
15.0
15.0
15.0
15.0
15.0
15.0
15.0
15.0
15.0
15.0
15.0
15.0
15.0
15.0
15.0
15.0
15.0
15.0
15.0
15.0
15.0
15.0
15.0
15.0
15.0
15.0
15.0
15.0
15.0
15.0
15.0
15.0
15.0
15.0
15.0
15.0
15.0
15.0
15.0
15.0
15.0
15.0
15.0
15.0
15.0
15.0
15.0
15.0
15.0
15.0
15.0
15.0
15.0
15.0
15.0
15.0
15.0
15.0
15.0
15.0
15.0
15.0
15.0
15.0
15.0
15.0
15.0
15.0
15.0
15.0
15.0
15.0
15.0
15.0
15.0
15.0
15.0
15.0
15.0
15.0
15.0
15.0
15.0
15.0
15.0
15.0
15.0
15.0
15.0
15.0
15.0
15.0
15.0
15.0
15.0
15.0
15.0
15.0
15.0
15.0
15.0
15.0
15.0
15.0
15.0
15.0
15.0
15.0
15.0
15.0
15.0
15.0
15.0
15.0
15.0
15.0
15.0
15.0
15.0
15.0
15.0
15.0
15.0
15.0
15.0
15.0
15.0
15.0
15.0
15.0
15.0
15.0
15.0
15.0
15.0
15.0
15.0
15.0
15.0
15.0
15.0
15.0
15.0
15.0
15.0
15.0
15.0
15.0
15.0
15.0
15.0
15.0
15.0
15.0
15.0
15.0
15.0
15.0
15.0
15.0
15.0
15.0
15.0
15.0
15.0
15.0
15.0
15.0
15.0
15.0
15.0
15.0
15.0
15.0
15.0
15.0
15.0
15.0
15.0
15.0
15.0
15.0
15.0
15.0
15.0
15.0
15.0
15.0
15.0
15.0
15.0
15.0
15.0
15.0
15.0
15.0
15.0
15.0
15.0
15.0
15.0
15.0
15.0
15.0
15.0
15.0
15.0
15.0
15.0
15.0
15.0
15.0
15.0
15.0
15.0
15.0
15.0
15.0
15.0
15.0
15.0
15.0
15.0
15.0
15.0
15.0
15.0
15.0
15.0
15.0
15.0
15.0
15.0
15.0
15.0
15.0
15.0
15.0
15.0
15.0
15.0
15.0
15.0
15.0
15.0
15.0
15.0
15.0
15.0
15.0
15.0
15.0
15.0
15.0
15.0
15.0
15.0
15.0
15.0
15.0
15.0
15.0
15.0
15.0
15.0
15.0
15.0
15.0
15.0
15.0
15.0
15.0
15.0
15.0
15.0
15.0
15.0
15.0
15.0
15.0
15.0
15.0
15.0
15.0
15.0
15.0
15.0
15.0
15.0
15.0
15.0
15.0
15.0
15.0
15.0
15.0
15.0
15.0
15.0
15.0
15.0
15.0
15.0
15.0
15.0
15.0
15.0
15.0
15.0
15.0
15.0
15.0
15.0
15.0
15.0
15.0
15.0
15.0
15.0
15.0
15.0
15.0
15.0
15.0
15.0
15.0
15.0
15.0
15.0
15.0
15.0
15.0
15.0
15.0
15.0
15.0
15.0
15.0
15.0
15.0
15.0
15.0
15.0
15.0
15.0
15.0
15.0
15.0
15.0
15.0
15.0
15.0
15.0
15.0
15.0
15.0
15.0
15.0
15.0
15.0
15.0
15.0
15.0
15.0
15.0
15.0
15.0
15.0
15.0
15.0
15.0
15.0
15.0
15.0
15.0
15.0
15.0
15.0
15.0
15.0
15.0
15.0
15.0
15.0
15.0
15.0
15.0
15.0
15.0
15.0
15.0
15.0
15.0
15.0
15.0
15.0
15.0
15.0
15.0
15.0
15.0
15.0
15.0
15.0
15.0
15.0
15.0
15.0
15.0
15.0
15.0
15.0
15.0
15.0
15.0
15.0
15.0
15.0
15.0
15.0
15.0
15.0
15.0
15.0
15.0
15.0
15.0
15.0
15.0
15.0
15.0
15.0
15.0
15.0
15.0
15.0
15.0
15.0
15.0
15.0
15.0
15.0
15.0
15.0
15.0
15.0
15.0
15.0
15.0
15.0
15.0
15.0
15.0
15.0
15.0
15.0
15.0
15.0
15.0
15.0
15.0
15.0
15.0
15.0
15.0
15.0
15.0
15.0
15.0
15.0
15.0
15.0
15.0
15.0
15.0
15.0
15.0
15.0
15.0
15.0
15.0
15.0
15.0
15.0
15.0
15.0
15.0
15.0
15.0
15.0
15.0
15.0
15.0
15.0
15.0
15.0
15.0
15.0
15.0
15.0
15.0
15.0
15.0
15.0
15.0
15.0
15.0
15.0
15.0
15.0
15.0
15.0
15.0
15.0
15.0
15.0
15.0
15.0
15.0
15.0
15.0
15.0
15.0
15.0
15.0
15.0
15.0
15.0
15.0
15.0
15.0
15.0
15.0
15.0
15.0
15.0
15.0
15.0
15.0
15.0
15.0
15.0
15.0
15.0
15.0
15.0
15.0
15.0
15.0
15.0
15.0
15.0
15.0
15.0
15.0
15.0
15.0
15.0
15.0
15.0
15.0
15.0
15.0
15.0
15.0
15.0
15.0
15.0
15.0
15.0
15.0
15.0
15.0
15.0
15.0
15.0
15.0
15.0
15.0
15.0
15.0
15.0
15.0
15.0
15.0
15.0
15.0
15.0
15.0
15.0
15.0
15.0
15.0
15.0
15.0
15.0
15.0
15.0
15.0
15.0
15.0
15.0
15.0
15.0
15.0
15.0
15.0
15.0
15.0
15.0
15.0
15.0
15.0
15.0
15.0
15.0
15.0
15.0
15.0
15.0
15.0
15.0
15.0
15.0
15.0
15.0
15.0
15.0
15.0
15.0
15.0
15.0
15.0
15.0
15.0
15.0
15.0
15.0
15.0
15.0
15.0
15.0
15.0
15.0
15.0
15.0
15.0
15.0
15.0
15.0
15.0
15.0
15.0
15.0
15.0
15.0
15.0
15.0
15.0
15.0
15.0
15.0
15.0
15.0
15.0
15.0
15.0
15.0
15.0
15.0
15.0
15.0
15.0
15.0
15.0
15.0
15.0
15.0
15.0
15.0
15.0
15.0
15.0
15.0
15.0
15.0
15.0
15.0
15.0
15.0
15.0
15.0
15.0
15.0
15.0
15.0
15.0
15.0
15.0
15.0
15.0
15.0
15.0
15.0
15.0
15.0
15.0
15.0
15.0
15.0
15.0
15.0
15.0
15.0
15.0
15.0
15.0
15.0
15.0
15.0
15.0
15.0
15.0
15.0
15.0
15.0
15.0
15.0
15.0
15.0
15.0
15.0
15.0
15.0
15.0
15.0
15.0
15.0
15.0
15.0
15.0
15.0
15.0
15.0
15.0
15.0
15.0
15.0
15.0
15.0
15.0
15.0
SCALARS Fcdg_x float 1
LOOKUP_TABLE default
-1.621860988450797e-13
1127.482517629952
1209.7736040665905
1236.0296600223787
1261.6134933804542
2349.770108072874
2731.5763722630913
2982.684315979014
3163.2457602987715
3298.7983428802427
3403.084811922041
3484.8370473611694
3549.57263541898
-2.190295177058877e-13
922.3398935456551
986.2672427847083
1007.1717499618322
1027.8478954355312
2116.0045101279507
2497.810774318168
2748.9187180340914
2929.4801623538488
3065.03274493532
3169.3192139771177
3251.0714494162457
3315.8070374740564
-2.190295177058877e-13
678.7726152138389
724.7467773925083
739.951248728117
755.0882171996809
1843.2448318921006
2225.051096082318
2476.159039798241
2656.7204841179987
2792.27306669947
2896.5595357412676
2978.3117711803957
3043.0473592382064
-2.758729365666957e-13
413.4081985816081
441.10590723701097
450.3156273737274
459.5125502314039
1547.6691649238232
1929.475429114041
2180.583372829964
2361.1448171497213
2496.6973997311925
2600.9838687729907
2682.7361042121183
2747.471692269929
-2.758729365666957e-13
138.59800269481696
147.842638425185
150.92338889319745
154.0036946213746
1242.1603093137942
1623.9665735040116
1875.0745172199345
2055.6359615396923
2191.1885441211634
2295.475013162961
2377.2272486020893
2441.9628366599
-2.7031016474179954e-13
-2.7031016474179945e-14
-1.0812406589672002e-14
-5.406203294835972e-15
0.0
1088.1566146924195
1469.9628788826371
1721.07082259856
1901.6322669183178
2037.184849499789
2141.4713185415867
2223.2235539807148
2287.9591420385254
-2.616620818514937e-13
-138.59800269481698
-147.842638425185
-150.92338889319745
-154.0036946213746
934.1529200710448
1315.9591842612626
1567.0671279771855
1747.6285722969433
1883.1811548784144
1987.4676239202122
2069.2198593593403
2133.955447417151
-2.190295177058877e-13
-413.4081985816081
-441.105907237011
-450.3156273737274
-459.5125502314039
628.6440644610155
1010.4503286512332
1261.558272367156
1442.1197166869138
1577.672299268385
1681.9587683101827
1763.7110037493107
1828.4465918071214
-3.327163554275037e-13
-678.7726152138391
-724.7467773925083
-739.951248728117
-755.0882171996809
333.06839749273854
714.8746616829562
965.9826053988791
1146.5440497186369
1282.096632300108
1386.3831013419058
1468.1353367810339
1532.8709248388445
-3.327163554275037e-13
-922.3398935456551
-986.2672427847083
-1007.1717499618322
-1027.8478954355312
60.30871925688825
442.11498344710594
693.2229271630288
873.7843714827866
1009.3369540642577
1113.6234231060555
1195.3756585451836
1260.1112466029942
-1.621860988450797e-13
-1127.482517629952
-1209.7736040665905
-1236.0296600223787
-1261.6134933804542
-173.45687868803475
208.34938550218294
459.45732921810577
640.0187735378636
775.5713561193347
879.8578251611325
961.6100606002606
1026.3456486580712
-766.5698803106642
1013.3318606240498
1165.8888144378207
1214.4683181387636
1261.6134933804542
2176.336943436398
2584.45539807275
2861.0389316976034
3064.00589179512
3218.268317924454
3337.8925752099594
3431.9964805032196
3506.9645828859875
-766.5698803106642
828.4112698658595
949.2428096607018
988.7715735116487
1027.8478954355312
1942.571345491475
2350.689800127827
2627.27333375268
2830.2402938501964
2984.5027199795313
3104.1269772650367
3198.2308825582963
3273.1989849410647
-766.5698803106642
593.4857502386153
690.8206938814928
723.0267890480766
755.0882171996809
1669.8116672556248
2077.930121891977
2354.51365551683
2557.4806156143463
2711.743041743681
2831.367299029186
2925.4712043224463
3000.4393067052147
-766.5698803106642
332.5777854705757
408.82855915792555
434.18863099667277
459.5125502314039
1374.236000287348
1782.3544549236997
2058.9379885485528
2261.904948646069
2416.167374775404
2535.7916320609093
2629.8955373541694
2704.8636397369373
-766.5698803106642
60.12341020030931
116.45672586335971
135.2318429311433
154.0036946213746
1068.7271446773184
1476.8455993136704
1753.4291329385237
1956.39609303604
2110.658519165375
2230.2827764508797
2324.38668174414
2399.3547841269083
-766.5698803106642
-77.82744782868197
-31.135043842328727
-15.567812322645207
0.0
914.7234500559439
1322.8419046922959
1599.425438317149
1802.3923984146654
1956.6548245440001
2076.2790818295052
2170.3829871227654
2245.3510895055338
-766.5698803106642
-216.07316674242702
-178.83553173080395
-166.42003682681653
-154.0036946213746
760.7197554345693
1168.8382100709214
1445.4217436957742
1648.388703793291
1802.6511299226254
1922.2753872081307
2016.3792925013909
2091.3473948841593
-766.5698803106642
-491.02908454863257
-472.12612069699804
-465.82028497509435
-459.5125502314039
455.21089982454
863.329354460892
1139.9128880857452
1342.8798481832614
1497.1422743125963
1616.7665315981012
1710.8704368913614
1785.8385392741297
-766.5698803106642
-757.833349238723
-756.2575761467353
-755.6851555316998
-755.0882171996809
159.63523285626297
567.753687492615
844.3372211174681
1047.3041812149845
1201.5666073443192
1321.1908646298243
1415.2947699230845
1490.2628723058529
-766.5698803106641
-1004.7715078587127
-1018.9223975924077
-1023.4389605119384
-1027.8478954355312
-113.12444537958731
294.9940092567647
571.5775428816178
774.5445029791342
928.8069291084689
1048.431186393974
1142.5350916872342
1217.5031940700026
-766.5698803106642
-1217.106059716573
-1244.7457552467308
-1253.3462988397523
-1261.6134933804542
-346.8900433245103
61.22841131184168
337.8119449366948
540.7789050342112
695.0413311635459
814.665588449051
908.7694937423112
983.7375961250796
-1509.8479227111652
827.1101282357762
1095.2925097998996
1180.3335177226531
1261.6134933804542
2039.183826741416
2459.677138412082
2756.154182835696
2978.8673246255066
3150.63169866356
3284.9034715398366
3390.8339713900887
3475.226841446034
-1509.8479227111652
708.1147630770544
902.0854165928217
965.4219301506068
1027.8478954355312
1805.4182287964927
2225.911540467159
2522.3885848907726
2745.101726680584
2916.8661007186374
3051.137873594914
3157.068373445166
3241.461243501111
-1509.8479227111652
493.7355893319529
651.1998513925474
703.2838151236037
755.0882171996809
1532.6585505606427
1953.1518622313088
2249.6289066549225
2472.3420484447333
2644.1064224827874
2778.3781953590637
2884.308695209316
2968.701565265261
-1509.8479227111652
242.54063843714897
372.8759431027586
416.2313155445386
459.5125502314039
1237.0828835923653
1657.5761952630314
1954.0532396866452
2176.7663814764564
2348.53075551451
2482.8025283907864
2588.7330282410385
2673.125898296984
-1509.8479227111652
-24.45527363990105
82.60885994152456
118.30930297168206
154.0036946213746
931.5740279823361
1352.0673396530024
1648.544384076616
1871.2575258664274
2043.021899904481
2177.2936727807573
2283.2241726310094
2367.6170426869544
-1509.8479227111652
-160.56833920015245
-64.26305376351134
-32.13408060647268
0.0
777.5703333609615
1198.0636450316276
1494.5406894552414
1717.2538312450527
1889.0182052831065
2023.2899781593828
2129.220478009635
2213.61334806558
-1509.8479227111652
-297.3957915991449
-211.40088933316878
-182.70643924615342
-154.0036946213746
623.5666387395869
1044.059950410253
1340.5369948338666
1563.250136623678
1735.014510661732
1869.2862835380083