# vtk DataFile Version 3.0
Kart explore — axes cap, volant, gaz ; temps = vit (voir .pvd)
ASCII
DATASET POLYDATA
POINTS 2574 float
-90.0 -45.0 -4.0
-90.0 -45.0 -3.0
-90.0 -45.0 -2.0
-90.0 -45.0 -1.0
-90.0 -45.0 0.0
-90.0 -45.0 10.0
-90.0 -45.0 20.0
-90.0 -45.0 30.0
-90.0 -45.0 40.0
-90.0 -45.0 50.0
-90.0 -45.0 60.0
-90.0 -45.0 70.0
-90.0 -45.0 80.0
-90.0 -35.0 -4.0
-90.0 -35.0 -3.0
-90.0 -35.0 -2.0
-90.0 -35.0 -1.0
-90.0 -35.0 0.0
-90.0 -35.0 10.0
-90.0 -35.0 20.0
-90.0 -35.0 30.0
-90.0 -35.0 40.0
-90.0 -35.0 50.0
-90.0 -35.0 60.0
-90.0 -35.0 70.0
-90.0 -35.0 80.0
-90.0 -25.0 -4.0
-90.0 -25.0 -3.0
-90.0 -25.0 -2.0
-90.0 -25.0 -1.0
-90.0 -25.0 0.0
-90.0 -25.0 10.0
-90.0 -25.0 20.0
-90.0 -25.0 30.0
-90.0 -25.0 40.0
-90.0 -25.0 50.0
-90.0 -25.0 60.0
-90.0 -25.0 70.0
-90.0 -25.0 80.0
-90.0 -15.0 -4.0
-90.0 -15.0 -3.0
-90.0 -15.0 -2.0
-90.0 -15.0 -1.0
-90.0 -15.0 0.0
-90.0 -15.0 10.0
-90.0 -15.0 20.0
-90.0 -15.0 30.0
-90.0 -15.0 40.0
-90.0 -15.0 50.0
-90.0 -15.0 60.0
-90.0 -15.0 70.0
-90.0 -15.0 80.0
-90.0 -5.0 -4.0
-90.0 -5.0 -3.0
-90.0 -5.0 -2.0
-90.0 -5.0 -1.0
-90.0 -5.0 0.0
-90.0 -5.0 10.0
-90.0 -5.0 20.0
-90.0 -5.0 30.0
-90.0 -5.0 40.0
-90.0 -5.0 50.0
-90.0 -5.0 60.0
-90.0 -5.0 70.0
-90.0 -5.0 80.0
-90.0 0.0 -4.0
-90.0 0.0 -3.0
-90.0 0.0 -2.0
-90.0 0.0 -1.0
-90.0 0.0 0.0
-90.0 0.0 10.0
-90.0 0.0 20.0
-90.0 0.0 30.0
-90.0 0.0 40.0
-90.0 0.0 50.0
-90.0 0.0 60.0
-90.0 0.0 70.0
-90.0 0.0 80.0
-90.0 5.0 -4.0
-90.0 5.0 -3.0
-90.0 5.0 -2.0
-90.0 5.0 -1.0
-90.0 5.0 0.0
-90.0 5.0 10.0
-90.0 5.0 20.0
-90.0 5.0 30.0
-90.0 5.0 40.0
-90.0 5.0 50.0
-90.0 5.0 60.0
-90.0 5.0 70.0
-90.0 5.0 80.0
-90.0 15.0 -4.0
-90.0 15.0 -3.0
-90.0 15.0 -2.0
-90.0 15.0 -1.0
-90.0 15.0 0.0
-90.0 15.0 10.0
-90.0 15.0 20.0
-90.0 15.0 30.0
-90.0 15.0 40.0
-90.0 15.0 50.0
-90.0 15.0 60.0
-90.0 15.0 70.0
-90.0 15.0 80.0
-90.0 25.0 -4.0
-90.0 25.0 -3.0
-90.0 25.0 -2.0
-90.0 25.0 -1.0
-90.0 25.0 0.0
-90.0 25.0 10.0
-90.0 25.0 20.0
-90.0 25.0 30.0
-90.0 25.0 40.0
-90.0 25.0 50.0
-90.0 25.0 60.0
-90.0 25.0 70.0
-90.0 25.0 80.0
-90.0 35.0 -4.0
-90.0 35.0 -3.0
-90.0 35.0 -2.0
-90.0 35.0 -1.0
-90.0 35.0 0.0
-90.0 35.0 10.0
-90.0 35.0 20.0
-90.0 35.0 30.0
-90.0 35.0 40.0
-90.0 35.0 50.0
-90.0 35.0 60.0
-90.0 35.0 70.0
-90.0 35.0 80.0
-90.0 45.0 -4.0
-90.0 45.0 -3.0
-90.0 45.0 -2.0
-90.0 45.0 -1.0
-90.0 45.0 0.0
-90.0 45.0 10.0
-90.0 45.0 20.0
-90.0 45.0 30.0
-90.0 45.0 40.0
-90.0 45.0 50.0
-90.0 45.0 60.0
-90.0 45.0 70.0
-90.0 45.0 80.0
-80.0 -45.0 -4.0
-80.0 -45.0 -3.0
-80.0 -45.0 -2.0
-80.0 -45.0 -1.0
-80.0 -45.0 0.0
-80.0 -45.0 10.0
-80.0 -45.0 20.0
-80.0 -45.0 30.0
-80.0 -45.0 40.0
-80.0 -45.0 50.0
-80.0 -45.0 60.0
-80.0 -45.0 70.0
-80.0 -45.0 80.0
-80.0 -35.0 -4.0
-80.0 -35.0 -3.0
-80.0 -35.0 -2.0
-80.0 -35.0 -1.0
-80.0 -35.0 0.0
-80.0 -35.0 10.0
-80.0 -35.0 20.0
-80.0 -35.0 30.0
-80.0 -35.0 40.0
-80.0 -35.0 50.0
-80.0 -35.0 60.0
-80.0 -35.0 70.0
-80.0 -35.0 80.0
-80.0 -25.0 -4.0
-80.0 -25.0 -3.0
-80.0 -25.0 -2.0
-80.0 -25.0 -1.0
-80.0 -25.0 0.0
-80.0 -25.0 10.0
-80.0 -25.0 20.0
-80.0 -25.0 30.0
-80.0 -25.0 40.0
-80.0 -25.0 50.0
-80.0 -25.0 60.0
-80.0 -25.0 70.0
-80.0 -25.0 80.0
-80.0 -15.0 -4.0
-80.0 -15.0 -3.0
-80.0 -15.0 -2.0
-80.0 -15.0 -1.0
-80.0 -15.0 0.0
-80.0 -15.0 10.0
-80.0 -15.0 20.0
-80.0 -15.0 30.0
-80.0 -15.0 40.0
-80.0 -15.0 50.0
-80.0 -15.0 60.0
-80.0 -15.0 70.0
-80.0 -15.0 80.0
-80.0 -5.0 -4.0
-80.0 -5.0 -3.0
-80.0 -5.0 -2.0
-80.0 -5.0 -1.0
-80.0 -5.0 0.0
-80.0 -5.0 10.0
-80.0 -5.0 20.0
-80.0 -5.0 30.0
-80.0 -5.0 40.0
-80.0 -5.0 50.0
-80.0 -5.0 60.0
-80.0 -5.0 70.0
-80.0 -5.0 80.0
-80.0 0.0 -4.0
-80.0 0.0 -3.0
-80.0 0.0 -2.0
-80.0 0.0 -1.0
-80.0 0.0 0.0
-80.0 0.0 10.0
-80.0 0.0 20.0
-80.0 0.0 30.0
-80.0 0.0 40.0
-80.0 0.0 50.0
-80.0 0.0 60.0
-80.0 0.0 70.0
-80.0 0.0 80.0
-80.0 5.0 -4.0
-80.0 5.0 -3.0
-80.0 5.0 -2.0
-80.0 5.0 -1.0
-80.0 5.0 0.0
-80.0 5.0 10.0
-80.0 5.0 20.0
-80.0 5.0 30.0
-80.0 5.0 40.0
-80.0 5.0 50.0
-80.0 5.0 60.0
-80.0 5.0 70.0
-80.0 5.0 80.0
-80.0 15.0 -4.0
-80.0 15.0 -3.0
-80.0 15.0 -2.0
-80.0 15.0 -1.0
-80.0 15.0 0.0
-80.0 15.0 10.0
-80.0 15.0 20.0
-80.0 15.0 30.0
-80.0 15.0 40.0
-80.0 15.0 50.0
-80.0 15.0 60.0
-80.0 15.0 70.0
-80.0 15.0 80.0
-80.0 25.0 -4.0
-80.0 25.0 -3.0
-80.0 25.0 -2.0
-80.0 25.0 -1.0
-80.0 25.0 0.0
-80.0 25.0 10.0
-80.0 25.0 20.0
-80.0 25.0 30.0
-80.0 25.0 40.0
-80.0 25.0 50.0
-80.0 25.0 60.0
-80.0 25.0 70.0
-80.0 25.0 80.0
-80.0 35.0 -4.0
-80.0 35.0 -3.0
-80.0 35.0 -2.0
-80.0 35.0 -1.0
-80.0 35.0 0.0
-80.0 35.0 10.0
-80.0 35.0 20.0
-80.0 35.0 30.0
-80.0 35.0 40.0
-80.0 35.0 50.0
-80.0 35.0 60.0
-80.0 35.0 70.0
-80.0 35.0 80.0
-80.0 45.0 -4.0
-80.0 45.0 -3.0
-80.0 45.0 -2.0
-80.0 45.0 -1.0
-80.0 45.0 0.0
-80.0 45.0 10.0
-80.0 45.0 20.0
-80.0 45.0 30.0
-80.0 45.0 40.0
-80.0 45.0 50.0
-80.0 45.0 60.0
-80.0 45.0 70.0
-80.0 45.0 80.0
-70.0 -45.0 -4.0
-70.0 -45.0 -3.0
-70.0 -45.0 -2.0
-70.0 -45.0 -1.0
-70.0 -45.0 0.0
-70.0 -45.0 10.0
-70.0 -45.0 20.0
-70.0 -45.0 30.0
-70.0 -45.0 40.0
-70.0 -45.0 50.0
-70.0 -45.0 60.0
-70.0 -45.0 70.0
-70.0 -45.0 80.0
-70.0 -35.0 -4.0
-70.0 -35.0 -3.0
-70.0 -35.0 -2.0
-70.0 -35.0 -1.0
-70.0 -35.0 0.0
-70.0 -35.0 10.0
-70.0 -35.0 20.0
-70.0 -35.0 30.0
-70.0 -35.0 40.0
-70.0 -35.0 50.0
-70.0 -35.0 60.0
-70.0 -35.0 70.0
-70.0 -35.0 80.0
-70.0 -25.0 -4.0
-70.0 -25.0 -3.0
-70.0 -25.0 -2.0
-70.0 -25.0 -1.0
-70.0 -25.0 0.0
-70.0 -25.0 10.0
-70.0 -25.0 20.0
-70.0 -25.0 30.0
-70.0 -25.0 40.0
-70.0 -25.0 50.0
-70.0 -25.0 60.0
-70.0 -25.0 70.0
-70.0 -25.0 80.0
-70.0 -15.0 -4.0
-70.0 -15.0 -3.0
-70.0 -15.0 -2.0
-70.0 -15.0 -1.0
-70.0 -15.0 0.0
-70.0 -15.0 10.0
-70.0 -15.0 20.0
-70.0 -15.0 30.0
-70.0 -15.0 40.0
-70.0 -15.0 50.0
-70.0 -15.0 60.0
-70.0 -15.0 70.0
-70.0 -15.0 80.0
-70.0 -5.0 -4.0
-70.0 -5.0 -3.0
-70.0 -5.0 -2.0
-70.0 -5.0 -1.0
-70.0 -5.0 0.0
-70.0 -5.0 10.0
-70.0 -5.0 20.0
-70.0 -5.0 30.0
-70.0 -5.0 40.0
-70.0 -5.0 50.0
-70.0 -5.0 60.0
-70.0 -5.0 70.0
-70.0 -5.0 80.0
-70.0 0.0 -4.0
-70.0 0.0 -3.0
-70.0 0.0 -2.0
-70.0 0.0 -1.0
-70.0 0.0 0.0
-70.0 0.0 10.0
-70.0 0.0 20.0
-70.0 0.0 30.0
-70.0 0.0 40.0
-70.0 0.0 50.0
-70.0 0.0 60.0
-70.0 0.0 70.0
-70.0 0.0 80.0
-70.0 5.0 -4.0
-70.0 5.0 -3.0
-70.0 5.0 -2.0
-70.0 5.0 -1.0
-70.0 5.0 0.0
-70.0 5.0 10.0
-70.0 5.0 20.0
-70.0 5.0 30.0
-70.0 5.0 40.0
-70.0 5.0 50.0
-70.0 5.0 60.0
-70.0 5.0 70.0
-70.0 5.0 80.0
-70.0 15.0 -4.0
-70.0 15.0 -3.0
-70.0 15.0 -2.0
-70.0 15.0 -1.0
-70.0 15.0 0.0
-70.0 15.0 10.0
-70.0 15.0 20.0
-70.0 15.0 30.0
-70.0 15.0 40.0
-70.0 15.0 50.0
-70.0 15.0 60.0
-70.0 15.0 70.0
-70.0 15.0 80.0
-70.0 25.0 -4.0
-70.0 25.0 -3.0
-70.0 25.0 -2.0
-70.0 25.0 -1.0
-70.0 25.0 0.0
-70.0 25.0 10.0
-70.0 25.0 20.0
-70.0 25.0 30.0
-70.0 25.0 40.0
-70.0 25.0 50.0
-70.0 25.0 60.0
-70.0 25.0 70.0
-70.0 25.0 80.0
-70.0 35.0 -4.0
-70.0 35.0 -3.0
-70.0 35.0 -2.0
-70.0 35.0 -1.0
-70.0 35.0 0.0
-70.0 35.0 10.0
-70.0 35.0 20.0
-70.0 35.0 30.0
-70.0 35.0 40.0
-70.0 35.0 50.0
-70.0 35.0 60.0
-70.0 35.0 70.0
-70.0 35.0 80.0
-70.0 45.0 -4.0
-70.0 45.0 -3.0
-70.0 45.0 -2.0
-70.0 45.0 -1.0
-70.0 45.0 0.0
-70.0 45.0 10.0
-70.0 45.0 20.0
-70.0 45.0 30.0
-70.0 45.0 40.0
-70.0 45.0 50.0
-70.0 45.0 60.0
-70.0 45.0 70.0
-70.0 45.0 80.0
-59.99999999999999 -45.0 -4.0
-59.99999999999999 -45.0 -3.0
-59.99999999999999 -45.0 -2.0
-59.99999999999999 -45.0 -1.0
-59.99999999999999 -45.0 0.0
-59.99999999999999 -45.0 10.0
-59.99999999999999 -45.0 20.0
-59.99999999999999 -45.0 30.0
-59.99999999999999 -45.0 40.0
-59.99999999999999 -45.0 50.0
-59.99999999999999 -45.0 60.0
-59.99999999999999 -45.0 70.0
-59.99999999999999 -45.0 80.0
-59.99999999999999 -35.0 -4.0
-59.99999999999999 -35.0 -3.0
-59.99999999999999 -35.0 -2.0
-59.99999999999999 -35.0 -1.0
-59.99999999999999 -35.0 0.0
-59.99999999999999 -35.0 10.0
-59.99999999999999 -35.0 20.0
-59.99999999999999 -35.0 30.0
-59.99999999999999 -35.0 40.0
-59.99999999999999 -35.0 50.0
-59.99999999999999 -35.0 60.0
-59.99999999999999 -35.0 70.0
-59.99999999999999 -35.0 80.0
-59.99999999999999 -25.0 -4.0
-59.99999999999999 -25.0 -3.0
-59.99999999999999 -25.0 -2.0
-59.99999999999999 -25.0 -1.0
-59.99999999999999 -25.0 0.0
-59.99999999999999 -25.0 10.0
-59.99999999999999 -25.0 20.0
-59.99999999999999 -25.0 30.0
-59.99999999999999 -25.0 40.0
-59.99999999999999 -25.0 50.0
-59.99999999999999 -25.0 60.0
-59.99999999999999 -25.0 70.0
-59.99999999999999 -25.0 80.0
-59.99999999999999 -15.0 -4.0
-59.99999999999999 -15.0 -3.0
-59.99999999999999 -15.0 -2.0
-59.99999999999999 -15.0 -1.0
-59.99999999999999 -15.0 0.0
-59.99999999999999 -15.0 10.0
-59.99999999999999 -15.0 20.0
-59.99999999999999 -15.0 30.0
-59.99999999999999 -15.0 40.0
-59.99999999999999 -15.0 50.0
-59.99999999999999 -15.0 60.0
-59.99999999999999 -15.0 70.0
-59.99999999999999 -15.0 80.0
-59.99999999999999 -5.0 -4.0
-59.99999999999999 -5.0 -3.0
-59.99999999999999 -5.0 -2.0
-59.99999999999999 -5.0 -1.0
-59.99999999999999 -5.0 0.0
-59.99999999999999 -5.0 10.0
-59.99999999999999 -5.0 20.0
-59.99999999999999 -5.0 30.0
-59.99999999999999 -5.0 40.0
-59.99999999999999 -5.0 50.0
-59.99999999999999 -5.0 60.0
-59.99999999999999 -5.0 70.0
-59.99999999999999 -5.0 80.0
-59.99999999999999 0.0 -4.0
-59.99999999999999 0.0 -3.0
-59.99999999999999 0.0 -2.0
-59.99999999999999 0.0 -1.0
-59.99999999999999 0.0 0.0
-59.99999999999999 0.0 10.0
-59.99999999999999 0.0 20.0
-59.99999999999999 0.0 30.0
-59.99999999999999 0.0 40.0
-59.99999999999999 0.0 50.0
-59.99999999999999 0.0 60.0
-59.99999999999999 0.0 70.0
-59.99999999999999 0.0 80.0
-59.99999999999999 5.0 -4.0
-59.99999999999999 5.0 -3.0
-59.99999999999999 5.0 -2.0
-59.99999999999999 5.0 -1.0
-59.99999999999999 5.0 0.0
-59.99999999999999 5.0 10.0
-59.99999999999999 5.0 20.0
-59.99999999999999 5.0 30.0
-59.99999999999999 5.0 40.0
-59.99999999999999 5.0 50.0
-59.99999999999999 5.0 60.0
-59.99999999999999 5.0 70.0
-59.99999999999999 5.0 80.0
-59.99999999999999 15.0 -4.0
-59.99999999999999 15.0 -3.0
-59.99999999999999 15.0 -2.0
-59.99999999999999 15.0 -1.0
-59.99999999999999 15.0 0.0
-59.99999999999999 15.0 10.0
-59.99999999999999 15.0 20.0
-59.99999999999999 15.0 30.0
-59.99999999999999 15.0 40.0
-59.99999999999999 15.0 50.0
[...]
POINT_DATA 2574
SCALARS vitesse float 1
LOOKUP_TABLE default
20.0
20.0
20.0
20.0
20.0
20.0
20.0
20.0
20.0
20.0
20.0
20.0
20.0
20.0
20.0
20.0
20.0
20.0
20.0
20.0
20.0
20.0
20.0
20.0
20.0
20.0
20.0
20.0
20.0
20.0
20.0
20.0
20.0
20.0
20.0
20.0
20.0
20.0
20.0
20.0
20.0
20.0
20.0
20.0
20.0
20.0
20.0
20.0
20.0
20.0
20.0
20.0
20.0
20.0
20.0
20.0
20.0
20.0
20.0
20.0
20.0
20.0
20.0
20.0
20.0
20.0
20.0
20.0
20.0
20.0
20.0
20.0
20.0
20.0
20.0
20.0
20.0
20.0
20.0
20.0
20.0
20.0
20.0
20.0
20.0
20.0
20.0
20.0
20.0
20.0
20.0
20.0
20.0
20.0
20.0
20.0
20.0
20.0
20.0
20.0
20.0
20.0
20.0
20.0
20.0
20.0
20.0
20.0
20.0
20.0
20.0
20.0
20.0
20.0
20.0
20.0
20.0
20.0
20.0
20.0
20.0
20.0
20.0
20.0
20.0
20.0
20.0
20.0
20.0
20.0
20.0
20.0
20.0
20.0
20.0
20.0
20.0
20.0
20.0
20.0
20.0
20.0
20.0
20.0
20.0
20.0
20.0
20.0
20.0
20.0
20.0
20.0
20.0
20.0
20.0
20.0
20.0
20.0
20.0
20.0
20.0
20.0
20.0
20.0
20.0
20.0
20.0
20.0
20.0
20.0
20.0
20.0
20.0
20.0
20.0
20.0
20.0
20.0
20.0
20.0
20.0
20.0
20.0
20.0
20.0
20.0
20.0
20.0
20.0
20.0
20.0
20.0
20.0
20.0
20.0
20.0
20.0
20.0
20.0
20.0
20.0
20.0
20.0
20.0
20.0
20.0
20.0
20.0
20.0
20.0
20.0
20.0
20.0
20.0
20.0
20.0
20.0
20.0
20.0
20.0
20.0
20.0
20.0
20.0
20.0
20.0
20.0
20.0
20.0
20.0
20.0
20.0
20.0
20.0
20.0
20.0
20.0
20.0
20.0
20.0
20.0
20.0
20.0
20.0
20.0
20.0
20.0
20.0
20.0
20.0
20.0
20.0
20.0
20.0
20.0
20.0
20.0
20.0
20.0
20.0
20.0
20.0
20.0
20.0
20.0
20.0
20.0
20.0
20.0
20.0
20.0
20.0
20.0
20.0
20.0
20.0
20.0
20.0
20.0
20.0
20.0
20.0
20.0
20.0
20.0
20.0
20.0
20.0
20.0
20.0
20.0
20.0
20.0
20.0
20.0
20.0
20.0
20.0
20.0
20.0
20.0
20.0
20.0
20.0
20.0
20.0
20.0
20.0
20.0
20.0
20.0
20.0
20.0
20.0
20.0
20.0
20.0
20.0
20.0
20.0
20.0
20.0
20.0
20.0
20.0
20.0
20.0
20.0
20.0
20.0
20.0
20.0
20.0
20.0
20.0
20.0
20.0
20.0
20.0
20.0
20.0
20.0
20.0
20.0
20.0
20.0
20.0
20.0
20.0
20.0
20.0
20.0
20.0
20.0
20.0
20.0
20.0
20.0
20.0
20.0
20.0
20.0
20.0
20.0
20.0
20.0
20.0
20.0
20.0
20.0
20.0
20.0
20.0
20.0
20.0
20.0
20.0
20.0
20.0
20.0
20.0
20.0
20.0
20.0
20.0
20.0
20.0
20.0
20.0
20.0
20.0
20.0
20.0
20.0
20.0
20.0
20.0
20.0
20.0
20.0
20.0
20.0
20.0
20.0
20.0
20.0
20.0
20.0
20.0
20.0
20.0
20.0
20.0
20.0
20.0
20.0
20.0
20.0
20.0
20.0
20.0
20.0
20.0
20.0
20.0
20.0
20.0
20.0
20.0
20.0
20.0
20.0
20.0
20.0
20.0
20.0
20.0
20.0
20.0
20.0
20.0
20.0
20.0
20.0
20.0
20.0
20.0
20.0
20.0
20.0
20.0
20.0
20.0
20.0
20.0
20.0
20.0
20.0
20.0
20.0
20.0
20.0
20.0
20.0
20.0
20.0
20.0
20.0
20.0
20.0
20.0
20.0
20.0
20.0
20.0
20.0
20.0
20.0
20.0
20.0
20.0
20.0
20.0
20.0
20.0
20.0
20.0
20.0
20.0
20.0
20.0
20.0
20.0
20.0
20.0
20.0
20.0
20.0
20.0
20.0
20.0
20.0
20.0
20.0
20.0
20.0
20.0
20.0
20.0
20.0
20.0
20.0
20.0
20.0
20.0
20.0
20.0
20.0
20.0
20.0
20.0
20.0
20.0
20.0
20.0
20.0
20.0
20.0
20.0
20.0
20.0
20.0
20.0
20.0
20.0
20.0
20.0
20.0
20.0
20.0
20.0
20.0
20.0
20.0
20.0
20.0
20.0
20.0
20.0
20.0
20.0
20.0
20.0
20.0
20.0
20.0
20.0
20.0
20.0
20.0
20.0
20.0
20.0
20.0
20.0
20.0
20.0
20.0
20.0
20.0
20.0
20.0
20.0
20.0
20.0
20.0
20.0
20.0
20.0
20.0
20.0
20.0
20.0
20.0
20.0
20.0
20.0
20.0
20.0
20.0
20.0
20.0
20.0
20.0
20.0
20.0
20.0
20.0
20.0
20.0
20.0
20.0
20.0
20.0
20.0
20.0
20.0
20.0
20.0
20.0
20.0
20.0
20.0
20.0
20.0
20.0
20.0
20.0
20.0
20.0
20.0
20.0
20.0
20.0
20.0
20.0
20.0
20.0
20.0
20.0
20.0
20.0
20.0
20.0
20.0
20.0
20.0
20.0
20.0
20.0
20.0
20.0
20.0
20.0
20.0
20.0
20.0
20.0
20.0
20.0
20.0
20.0
20.0
20.0
20.0
20.0
20.0
20.0
20.0
20.0
20.0
20.0
20.0
20.0
20.0
20.0
20.0
20.0
20.0
20.0
20.0
20.0
20.0
20.0
20.0
20.0
20.0
20.0
20.0
20.0
20.0
20.0
20.0
20.0
20.0
20.0
20.0
20.0
20.0
20.0
20.0
20.0
20.0
20.0
20.0
20.0
20.0
20.0
20.0
20.0
20.0
20.0
20.0
20.0
20.0
20.0
20.0
20.0
20.0
20.0
20.0
20.0
20.0
20.0
20.0
20.0
20.0
20.0
20.0
20.0
20.0
20.0
20.0
20.0
20.0
20.0
20.0
20.0
20.0
20.0
20.0
20.0
20.0
20.0
20.0
20.0
20.0
20.0
20.0
20.0
20.0
20.0
20.0
20.0
20.0
20.0
20.0
20.0
20.0
20.0
20.0
20.0
20.0
20.0
20.0
20.0
20.0
20.0
20.0
20.0
20.0
20.0
20.0
20.0
20.0
20.0
20.0
20.0
20.0
20.0
20.0
20.0
20.0
20.0
20.0
20.0
20.0
20.0
20.0
20.0
20.0
20.0
20.0
20.0
20.0
20.0
20.0
20.0
20.0
20.0
20.0
20.0
20.0
20.0
20.0
20.0
20.0
20.0
20.0
20.0
20.0
20.0
20.0
20.0
20.0
20.0
20.0
20.0
20.0
20.0
20.0
20.0
20.0
20.0
20.0
20.0
20.0
20.0
20.0
20.0
20.0
20.0
20.0
20.0
20.0
20.0
20.0
20.0
20.0
20.0
20.0
20.0
20.0
20.0
20.0
20.0
20.0
20.0
20.0
20.0
20.0
20.0
20.0
20.0
20.0
20.0
20.0
20.0
20.0
20.0
20.0
20.0
20.0
20.0
20.0
20.0
20.0
20.0
20.0
20.0
20.0
20.0
20.0
20.0
20.0
20.0
20.0
20.0
20.0
20.0
20.0
20.0
20.0
20.0
20.0
20.0
20.0
20.0
20.0
20.0
20.0
20.0
20.0
20.0
20.0
20.0
20.0
20.0
20.0
20.0
20.0
20.0
20.0
20.0
20.0
20.0
20.0
20.0
20.0
20.0
20.0
20.0
20.0
20.0
20.0
20.0
20.0
20.0
20.0
20.0
20.0
20.0
20.0
20.0
20.0
20.0
20.0
20.0
20.0
20.0
20.0
20.0
20.0
20.0
20.0
20.0
20.0
20.0
20.0
20.0
20.0
20.0
20.0
20.0
20.0
20.0
20.0
20.0
20.0
20.0
20.0
20.0
20.0
20.0
20.0
20.0
20.0
20.0
20.0
20.0
20.0
20.0
20.0
20.0
20.0
20.0
20.0
20.0
20.0
20.0
20.0
20.0
20.0
20.0
20.0
20.0
20.0
20.0
20.0
20.0
20.0
20.0
20.0
20.0
20.0
20.0
20.0
20.0
20.0
20.0
20.0
20.0
20.0
20.0
20.0
20.0
20.0
20.0
20.0
20.0
20.0
20.0
20.0
20.0
20.0
20.0
20.0
20.0
20.0
20.0
20.0
20.0
20.0
20.0
20.0
20.0
20.0
20.0
20.0
20.0
20.0
20.0
20.0
20.0
20.0
20.0
20.0
20.0
20.0
20.0
20.0
20.0
20.0
20.0
20.0
20.0
20.0
20.0
20.0
20.0
20.0
20.0
20.0
20.0
20.0
20.0
20.0
20.0
20.0
20.0
20.0
20.0
20.0
20.0
20.0
20.0
20.0
20.0
20.0
20.0
20.0
20.0
20.0
20.0
20.0
20.0
20.0
20.0
20.0
20.0
20.0
20.0
20.0
20.0
20.0
20.0
20.0
20.0
20.0
20.0
20.0
20.0
20.0
20.0
20.0
20.0
20.0
20.0
20.0
20.0
20.0
20.0
20.0
20.0
20.0
20.0
20.0
20.0
20.0
20.0
20.0
20.0
20.0
20.0
20.0
20.0
20.0
20.0
20.0
20.0
20.0
20.0
20.0
20.0
20.0
20.0
20.0
20.0
20.0
20.0
20.0
20.0
20.0
20.0
20.0
20.0
20.0
20.0
20.0
20.0
20.0
20.0
20.0
20.0
20.0
20.0
20.0
20.0
20.0
20.0
20.0
20.0
20.0
20.0
20.0
20.0
20.0
20.0
20.0
20.0
20.0
20.0
20.0
20.0
20.0
20.0
20.0
20.0
20.0
20.0
20.0
20.0
20.0
20.0
20.0
20.0
20.0
20.0
20.0
20.0
20.0
20.0
20.0
20.0
20.0
20.0
20.0
20.0
20.0
20.0
20.0
20.0
20.0
20.0
20.0
20.0
20.0
20.0
20.0
20.0
20.0
20.0
20.0
20.0
20.0
20.0
20.0
20.0
20.0
20.0
20.0
20.0
20.0
20.0
20.0
20.0
20.0
20.0
20.0
20.0
20.0
20.0
20.0
20.0
20.0
20.0
20.0
20.0
20.0
20.0
20.0
20.0
20.0
20.0
20.0
20.0
20.0
20.0
20.0
20.0
20.0
20.0
20.0
20.0
20.0
20.0
20.0
20.0
20.0
20.0
20.0
20.0
20.0
20.0
20.0
20.0
20.0
20.0
20.0
20.0
20.0
20.0
20.0
20.0
20.0
20.0
20.0
20.0
20.0
20.0
20.0
20.0
20.0
20.0
20.0
20.0
20.0
20.0
20.0
20.0
20.0
20.0
20.0
20.0
20.0
20.0
20.0
20.0
20.0
20.0
20.0
20.0
20.0
20.0
20.0
20.0
20.0
20.0
20.0
20.0
20.0
20.0
20.0
20.0
20.0
20.0
20.0
20.0
20.0
20.0
20.0
20.0
20.0
20.0
20.0
20.0
20.0
20.0
20.0
20.0
20.0
20.0
20.0
20.0
20.0
20.0
20.0
20.0
20.0
20.0
20.0
20.0
20.0
20.0
20.0
20.0
20.0
20.0
20.0
20.0
20.0
20.0
20.0
20.0
20.0
20.0
20.0
20.0
20.0
20.0
20.0
20.0
20.0
20.0
20.0
20.0
20.0
20.0
20.0
20.0
20.0
20.0
20.0
20.0
20.0
20.0
20.0
20.0
20.0
20.0
20.0
20.0
20.0
20.0
20.0
20.0
20.0
20.0
20.0
20.0
20.0
20.0
20.0
20.0
20.0
20.0
20.0
20.0
20.0
20.0
20.0
20.0
20.0
20.0
20.0
20.0
20.0
20.0
20.0
20.0
20.0
20.0
20.0
20.0
20.0
20.0
20.0
20.0
20.0
20.0
20.0
20.0
20.0
20.0
20.0
20.0
20.0
20.0
20.0
20.0
20.0
20.0
20.0
20.0
20.0
20.0
20.0
20.0
20.0
20.0
20.0
20.0
20.0
20.0
20.0
20.0
20.0
20.0
20.0
20.0
20.0
20.0
20.0
20.0
20.0
20.0
20.0
20.0
20.0
20.0
20.0
20.0
20.0
20.0
20.0
20.0
20.0
20.0
20.0
20.0
20.0
20.0
20.0
20.0
20.0
20.0
20.0
20.0
20.0
20.0
20.0
20.0
20.0
20.0
20.0
20.0
20.0
20.0
20.0
20.0
20.0
20.0
20.0
20.0
20.0
20.0
20.0
20.0
20.0
20.0
20.0
20.0
20.0
20.0
20.0
20.0
20.0
20.0
20.0
20.0
20.0
20.0
20.0
20.0
20.0
20.0
20.0
20.0
20.0
20.0
20.0
20.0
20.0
20.0
20.0
20.0
20.0
20.0
20.0
20.0
20.0
20.0
20.0
20.0
20.0
20.0
20.0
20.0
20.0
20.0
20.0
20.0
20.0
20.0
20.0
20.0
20.0
20.0
20.0
20.0
20.0
20.0
20.0
20.0
20.0
20.0
20.0
20.0
20.0
20.0
20.0
20.0
20.0
20.0
20.0
20.0
20.0
20.0
20.0
20.0
20.0
20.0
20.0
20.0
20.0
20.0
20.0
20.0
20.0
20.0
20.0
20.0
20.0
20.0
20.0
20.0
20.0
20.0
20.0
20.0
20.0
20.0
20.0
20.0
20.0
20.0
20.0
20.0
20.0
20.0
20.0
20.0
20.0
20.0
20.0
20.0
20.0
20.0
20.0
20.0
20.0
20.0
20.0
20.0
20.0
20.0
20.0
20.0
20.0
20.0
20.0
20.0
20.0
20.0
20.0
20.0
20.0
20.0
20.0
20.0
20.0
20.0
20.0
20.0
20.0
20.0
20.0
20.0
20.0
20.0
20.0
20.0
20.0
20.0
20.0
20.0
20.0
20.0
20.0
20.0
20.0
20.0
20.0
20.0
20.0
20.0
20.0
20.0
20.0
20.0
20.0
20.0
20.0
20.0
20.0
20.0
20.0
20.0
20.0
20.0
20.0
20.0
20.0
20.0
20.0
20.0
20.0
20.0
20.0
20.0
20.0
20.0
20.0
20.0
20.0
20.0
20.0
20.0
20.0
20.0
20.0
20.0
20.0
20.0
20.0
20.0
20.0
20.0
20.0
20.0
20.0
20.0
20.0
20.0
20.0
20.0
20.0
20.0
20.0
20.0
20.0
20.0
20.0
20.0
20.0
20.0
20.0
20.0
20.0
20.0
20.0
20.0
20.0
20.0
20.0
20.0
20.0
20.0
20.0
20.0
20.0
20.0
20.0
20.0
20.0
20.0
20.0
20.0
20.0
20.0
20.0
20.0
20.0
20.0
20.0
20.0
20.0
20.0
20.0
20.0
20.0
20.0
20.0
20.0
20.0
20.0
20.0
20.0
20.0
20.0
20.0
20.0
20.0
20.0
20.0
20.0
20.0
20.0
20.0
20.0
20.0
20.0
20.0
20.0
20.0
20.0
20.0
20.0
20.0
20.0
20.0
20.0
20.0
20.0
20.0
20.0
20.0
20.0
20.0
20.0
20.0
20.0
20.0
20.0
20.0
20.0
20.0
20.0
20.0
20.0
20.0
20.0
20.0
20.0
20.0
20.0
20.0
20.0
20.0
20.0
20.0
20.0
20.0
20.0
20.0
20.0
20.0
20.0
20.0
20.0
20.0
20.0
20.0
20.0
20.0
20.0
20.0
20.0
20.0
20.0
20.0
20.0
20.0
20.0
20.0
20.0
20.0
20.0
20.0
20.0
20.0
20.0
20.0
20.0
20.0
20.0
20.0
20.0
20.0
20.0
20.0
20.0
20.0
20.0
20.0
20.0
20.0
20.0
20.0
20.0
20.0
20.0
20.0
20.0
20.0
20.0
20.0
20.0
20.0
20.0
20.0
20.0
20.0
20.0
20.0
20.0
20.0
20.0
20.0
20.0
20.0
20.0
20.0
20.0
20.0
20.0
20.0
20.0
20.0
20.0
20.0
20.0
20.0
20.0
20.0
20.0
20.0
20.0
20.0
20.0
20.0
20.0
20.0
20.0
20.0
20.0
20.0
20.0
20.0
20.0
20.0
20.0
20.0
20.0
20.0
20.0
20.0
20.0
20.0
20.0
20.0
20.0
20.0
20.0
20.0
20.0
20.0
20.0
20.0
20.0
20.0
20.0
20.0
20.0
20.0
20.0
20.0
20.0
20.0
20.0
20.0
20.0
20.0
20.0
20.0
20.0
20.0
20.0
20.0
20.0
20.0
20.0
20.0
20.0
20.0
20.0
20.0
20.0
20.0
20.0
20.0
20.0
20.0
20.0
20.0
20.0
20.0
20.0
20.0
20.0
20.0
20.0
20.0
20.0
20.0
20.0
20.0
20.0
20.0
20.0
20.0
20.0
20.0
20.0
20.0
20.0
20.0
20.0
20.0
20.0
20.0
20.0
20.0
20.0
20.0
20.0
20.0
20.0
20.0
20.0
20.0
20.0
20.0
20.0
20.0
20.0
20.0
20.0
20.0
20.0
20.0
20.0
20.0
20.0
20.0
20.0
20.0
20.0
20.0
20.0
20.0
20.0
20.0
20.0
20.0
20.0
20.0
20.0
20.0
20.0
20.0
20.0
20.0
20.0
20.0
20.0
20.0
20.0
20.0
20.0
20.0
20.0
20.0
20.0
20.0
20.0
20.0
20.0
20.0
20.0
20.0
20.0
20.0
20.0
20.0
20.0
20.0
20.0
20.0
20.0
20.0
20.0
20.0
20.0
20.0
20.0
20.0
20.0
20.0
20.0
20.0
20.0
20.0
20.0
20.0
20.0
20.0
20.0
20.0
20.0
20.0
20.0
20.0
20.0
20.0
20.0
20.0
20.0
20.0
20.0
20.0
20.0
20.0
20.0
20.0
20.0
20.0
20.0
20.0
20.0
20.0
20.0
20.0
20.0
20.0
20.0
20.0
20.0
20.0
20.0
20.0
20.0
20.0
20.0
20.0
20.0
20.0
20.0
20.0
20.0
20.0
20.0
20.0
20.0
20.0
20.0
20.0
20.0
20.0
20.0
20.0
20.0
20.0
20.0
20.0
20.0
20.0
20.0
20.0
20.0
20.0
20.0
20.0
20.0
20.0
20.0
20.0
20.0
20.0
20.0
20.0
20.0
20.0
20.0
20.0
20.0
20.0
20.0
20.0
20.0
20.0
20.0
20.0
20.0
20.0
20.0
20.0
20.0
20.0
20.0
20.0
20.0
20.0
20.0
20.0
20.0
20.0
20.0
20.0
20.0
20.0
20.0
20.0
20.0
20.0
20.0
20.0
20.0
20.0
20.0
20.0
20.0
20.0
20.0
20.0
20.0
20.0
20.0
20.0
20.0
20.0
20.0
20.0
20.0
20.0
20.0
20.0
20.0
20.0
20.0
20.0
20.0
20.0
20.0
20.0
20.0
20.0
20.0
20.0
20.0
20.0
20.0
20.0
20.0
20.0
20.0
20.0
20.0
20.0
20.0
20.0
20.0
20.0
20.0
20.0
20.0
20.0
20.0
20.0
20.0
20.0
20.0
20.0
20.0
20.0
20.0
20.0
20.0
20.0
20.0
20.0
20.0
20.0
20.0
20.0
20.0
20.0
20.0
20.0
20.0
20.0
20.0
20.0
20.0
20.0
20.0
20.0
20.0
20.0
20.0
20.0
20.0
20.0
20.0
20.0
20.0
20.0
20.0
20.0
20.0
20.0
20.0
20.0
20.0
20.0
20.0
20.0
20.0
20.0
20.0
20.0
20.0
20.0
20.0
20.0
20.0
20.0
20.0
20.0
20.0
20.0
20.0
20.0
20.0
20.0
20.0
20.0
20.0
20.0
20.0
20.0
20.0
20.0
20.0
20.0
20.0
20.0
20.0
20.0
20.0
20.0
20.0
20.0
20.0
20.0
20.0
20.0
20.0
20.0
20.0
20.0
20.0
20.0
20.0
20.0
20.0
20.0
20.0
20.0
20.0
20.0
20.0
20.0
20.0
20.0
20.0
20.0
20.0
20.0
20.0
20.0
20.0
20.0
20.0
20.0
20.0
20.0
20.0
20.0
20.0
20.0
20.0
20.0
20.0
20.0
20.0
20.0
20.0
20.0
20.0
20.0
20.0
20.0
20.0
20.0
20.0
20.0
20.0
20.0
20.0
20.0
20.0
20.0
20.0
20.0
20.0
20.0
20.0
20.0
20.0
20.0
20.0
20.0
20.0
20.0
20.0
20.0
20.0
20.0
20.0
20.0
20.0
20.0
20.0
20.0
20.0
20.0
20.0
20.0
20.0
20.0
20.0
20.0
20.0
20.0
20.0
20.0
20.0
20.0
20.0
20.0
20.0
20.0
20.0
20.0
20.0
20.0
20.0
20.0
20.0
20.0
20.0
20.0
20.0
20.0
20.0
20.0
20.0
20.0
20.0
20.0
20.0
20.0
20.0
20.0
20.0
20.0
20.0
20.0
20.0
20.0
20.0
20.0
20.0
20.0
20.0
20.0
20.0
20.0
20.0
20.0
20.0
20.0
20.0
20.0
20.0
20.0
20.0
20.0
20.0
20.0
20.0
20.0
20.0
20.0
20.0
20.0
20.0
20.0
20.0
20.0
20.0
20.0
20.0
20.0
20.0
20.0
20.0
20.0
20.0
20.0
20.0
20.0
20.0
20.0
20.0
20.0
20.0
20.0
20.0
20.0
20.0
20.0
20.0
20.0
20.0
20.0
20.0
20.0
20.0
20.0
20.0
20.0
20.0
20.0
20.0
20.0
20.0
20.0
20.0
20.0
20.0
20.0
20.0
20.0
20.0
20.0
20.0
20.0
20.0
20.0
20.0
20.0
20.0
20.0
20.0
20.0
20.0
20.0
20.0
20.0
20.0
20.0
20.0
20.0
20.0
20.0
20.0
20.0
20.0
20.0
20.0
20.0
20.0
20.0
20.0
20.0
20.0
20.0
20.0
20.0
20.0
20.0
20.0
20.0
20.0
20.0
20.0
20.0
20.0
20.0
20.0
20.0
20.0
20.0
20.0
20.0
20.0
20.0
20.0
20.0
20.0
20.0
20.0
20.0
20.0
20.0
20.0
20.0
20.0
20.0
20.0
20.0
20.0
20.0
20.0
20.0
20.0
20.0
20.0
20.0
20.0
20.0
20.0
SCALARS Fcdg_x float 1
LOOKUP_TABLE default
-3.327163554275037e-13
1127.482517629952
1209.7736040665905
1236.0296600223787
1261.6134933804542
2214.9179426518976
2564.1201053050536
2803.1395521860754
2982.684315979014
3123.1047634853576
3235.6628558100156
3327.399015180449
3403.084811922041
-2.190295177058877e-13
922.3398935456551
986.2672427847083
1007.1717499618323
1027.8478954355312
1981.1523447069746
2330.354507360131
2569.373954241152
2748.9187180340914
2889.339165540435
3001.897257865093
3093.6334172355255
3169.3192139771177
-2.190295177058877e-13
678.772615213839
724.7467773925083
739.9512487281171
755.0882171996809
1708.3926664711244
2057.5948291242803
2296.614276005302
2476.159039798241
2616.5794873045843
2729.1375796292423
2820.8737389996754
2896.5595357412676
-3.327163554275037e-13
413.4081985816081
441.105907237011
450.31562737372735
459.5125502314039
1412.8169995028475
1762.0191621560034
2001.038609037025
2180.583372829964
2321.0038203363074
2433.5619126609654
2525.298072031398
2600.9838687729907
-2.758729365666957e-13
138.59800269481696
147.842638425185
150.92338889319745
154.0036946213746
1107.3081438928182
1456.5103065459743
1695.5297534269957
1875.0745172199345
2015.4949647262779
2128.0530570509363
2219.789216421369
2295.475013162961
-2.7031016474179954e-13
-2.703101647417996e-14
-1.0812406589672002e-14
-5.406203294836001e-15
0.0
953.3044492714436
1302.5066119245996
1541.5260588056212
1721.07082259856
1861.4912701049034
1974.0493624295616
2065.7855217999945
2141.4713185415867
-2.474512271362917e-13
-138.59800269481696
-147.842638425185
-150.92338889319745
-154.0036946213746
799.3007546500689
1148.5029173032249
1387.5223641842467
1567.0671279771855
1707.4875754835289
1820.0456678081869
1911.78182717862
1987.4676239202122
-1.337643894146757e-13
-413.4081985816081
-441.105907237011
-450.31562737372735
-459.5125502314039
493.79189904003965
842.9940616931957
1082.0135085742172
1261.558272367156
1401.9787198734994
1514.5368121981578
1606.2729715685905
1681.9587683101827
-2.758729365666957e-13
-678.772615213839
-724.7467773925083
-739.9512487281171
-755.0882171996809
198.21623207176265
547.4183947249187
786.4378416059403
965.9826053988791
1106.4030529052225
1218.9611452298807
1310.6973046003136
1386.3831013419058
-3.327163554275037e-13
-922.3398935456551
-986.2672427847083
-1007.1717499618323
-1027.8478954355312
-74.5434461640877
274.6587164890684
513.67816337009
693.2229271630288
833.6433746693722
946.2014669940304
1037.9376263644633
1113.6234231060555
-1.621860988450797e-13
-1127.482517629952
-1209.7736040665905
-1236.0296600223787
-1261.6134933804542
-308.3090441090107
40.89311854414541
279.91256542516703
459.45732921810577
599.8777767244492
712.4358690491074
804.1720284195403
879.8578251611325
-766.5698803106644
1013.3318606240498
1165.8888144378207
1214.4683181387627
1261.6134933804542
2036.1659725966229
2403.6280707399496
2662.6490313072045
2861.0389316976043
3018.570584181193
3146.258442162979
3251.040348823134
3337.8925752099594
-766.5698803106643
828.4112698658594
949.2428096607018
988.7715735116485
1027.8478954355312
1802.4003746516998
2169.8624727950264
2428.8834333622813
2627.2733337526806
2784.8049862362705
2912.492844218056
3017.2747508782113
3104.1269772650367
-766.5698803106644
593.4857502386153
690.8206938814926
723.0267890480764
755.0882171996809
1529.6406964158496
1897.1027945591763
2156.123755126431
2354.5136555168306
2512.04530800042
2639.7331659822057
2744.515072642361
2831.367299029186
-766.5698803106644
332.5777854705757
408.8285591579256
434.1886309966728
459.5125502314039
1234.0650294475724
1601.5271275908992
1860.5480881581539
2058.937988548553
2216.469641032143
2344.1574990139284
2448.939405674084
2535.7916320609093
-766.5698803106643
60.12341020030935
116.45672586335968
135.23184293114332
154.0036946213746
928.5561738375432
1296.01827198087
1555.0392325481248
1753.4291329385242
1910.960785422114
2038.6486434038993
2143.4305500640544
2230.2827764508797
-766.5698803106643
-77.82744782868194
-31.1350438423288
-15.567812322645242
0.0
774.5524792161685
1142.0145773594954
1401.03553792675
1599.4254383171497
1756.9570908007393
1884.6449487825246
1989.4268554426799
2076.2790818295052
-766.5698803106644
-216.07316674242702
-178.835531730804
-166.4200368268165
-154.0036946213746
620.5487845947939
988.0108827381208
1247.0318433053753
1445.4217436957751
1602.9533961793645
1730.6412541611498
1835.4231608213054
1922.2753872081307
-766.5698803106644
-491.02908454863257
-472.12612069699804
-465.8202849750944
-459.5125502314039
315.03992898476463
682.5020271280915
941.5229876953462
1139.9128880857456
1297.4445405693355
1425.1323985511208
1529.9143052112759
1616.7665315981012
-766.5698803106643
-757.833349238723
-756.2575761467356
-755.6851555316998
-755.0882171996809
19.464262016487623
386.9263601598145
645.9473207270692
844.3372211174687
1001.8688736010583
1129.5567315828437
1234.338638242999
1321.1908646298243
-766.5698803106644
-1004.7715078587127
-1018.9223975924081
-1023.4389605119384
-1027.8478954355312
-253.2954162193626
114.16668192396423
373.18764249121887
571.5775428816185
729.109195365208
856.7970533469934
961.5789600071487
1048.431186393974
-766.5698803106644
-1217.1060597165733
-1244.7457552467308
-1253.3462988397528
-1261.6134933804542
-487.0610141642856
-119.59891602095877
139.42204454629587
337.81194493669545
495.34359742028505
623.0314554020704
727.8133620622257
814.665588449051
-1509.8479227111652
827.1101282357757
1095.2925097998993
1180.3335177226536
1261.6134933804542
1900.5312678647479
2270.4079294439025
2542.626942150372
2756.154182835696
2928.770332463956
3070.036795041846
3187.164929452475
3284.9034715398366
-1509.8479227111652
708.1147630770542
902.0854165928217
965.4219301506068
1027.8478954355312
1666.7656699198246
2036.6423314989795
2308.861344205449
2522.3885848907726
2695.0047345190333
2836.2711970969226
2953.3993315075522
3051.137873594914
-1509.8479227111652
493.7355893319528
651.1998513925475
703.2838151236037
755.0882171996809
1394.0059916839746
1763.8826532631292
2036.1016659695988
2249.6289066549225
2422.2450562831827
2563.5115188610725
2680.6396532717017
2778.3781953590637
-1509.8479227111652
242.54063843714897
372.8759431027587
416.2313155445386
459.5125502314039
1098.4303247156972
1468.306986294852
1740.5259990013215
1954.0532396866452
2126.669389314906
2267.935851892795
2385.063986303425
2482.8025283907864
-1509.8479227111652
-24.455273639901094
82.6088599415246
118.30930297168214
154.0036946213746
792.921469105668
1162.7981306848228
1435.0171433912924
1648.544384076616
1821.1605337048763
1962.4269962827661
2079.5551306933958
2177.2936727807573
-1509.8479227111652
-160.56833920015254
-64.26305376351127
-32.13408060647261
0.0
638.9177744842934
1008.7944360634482
1281.0134487699177
1494.5406894552414
1667.1568390835018
1808.4233016613914
1925.551436072021
2023.2899781593828
-1509.8479227111652
-297.3957915991449
-211.40088933316878
-182.70643924615337
-154.0036946213746
484.9140798629188
854.7907414420736
1127.009754148543
1340.5369948338666
1513.1531444621273